DF-ISE text

Info {
  version = 1.0
  type    = grid
  dimension   = 1
  nb_vertices = 115
  nb_edges    = 0
  nb_faces    = 0
  nb_elements = 116
  nb_regions  = 7
  regions     = [ "contact_0" "left_nn" "mid_n" "right_nn" "contact_1" "Source" "Drain" ]
  materials   = [ GaAs GaAs GaAs GaAs GaAs Contact Contact ]
}

Data {

  CoordSystem {
    translate = [  0.000000000000000e+00 0.000000000000000e+00 0.000000000000000e+00 ]
    transform = [  1.000000000000000e+00 0.000000000000000e+00 0.000000000000000e+00
 0.000000000000000e+00 1.000000000000000e+00 0.000000000000000e+00
 0.000000000000000e+00 0.000000000000000e+00 1.000000000000000e+00
 ]
  }

  Vertices (115) {
 -5.999999999999999e-04
 -3.000000000000000e-04
 0.000000000000000e+00
 3.000000000000000e-04
 5.999999999999999e-04
 8.999999999999999e-04
 1.200000000000000e-03
 1.500000000000000e-03
 1.800000000000000e-03
 2.100000000000000e-03
 2.400000000000000e-03
 2.700000000000000e-03
 3.000000000000000e-03
 3.300000000000000e-03
 3.599999999999999e-03
 3.899999999999999e-03
 4.199999999999999e-03
 4.499999999999999e-03
 4.799999999999999e-03
 5.099999999999999e-03
 5.399999999999999e-03
 5.699999999999998e-03
 5.999999999999998e-03
 6.299999999999998e-03
 6.599999999999998e-03
 6.899999999999997e-03
 7.199999999999997e-03
 7.499999999999997e-03
 7.799999999999997e-03
 8.099999999999998e-03
 8.399999999999998e-03
 8.699999999999999e-03
 8.999999999999999e-03
 9.300000000000001e-03
 9.600000000000001e-03
 9.900000000000003e-03
 1.020000000000000e-02
 1.050000000000000e-02
 1.080000000000000e-02
 1.110000000000001e-02
 1.140000000000001e-02
 1.170000000000001e-02
 1.200000000000001e-02
 1.230000000000001e-02
 1.260000000000001e-02
 1.290000000000001e-02
 1.320000000000001e-02
 1.350000000000001e-02
 1.380000000000001e-02
 1.410000000000001e-02
 1.440000000000001e-02
 1.470000000000001e-02
 1.500000000000002e-02
 1.530000000000001e-02
 1.560000000000001e-02
 1.590000000000001e-02
 1.620000000000002e-02
 1.650000000000002e-02
 1.680000000000002e-02
 1.710000000000002e-02
 1.740000000000002e-02
 1.770000000000002e-02
 1.800000000000002e-02
 1.830000000000002e-02
 1.860000000000002e-02
 1.890000000000002e-02
 1.920000000000002e-02
 1.950000000000002e-02
 1.980000000000003e-02
 2.010000000000003e-02
 2.040000000000003e-02
 2.070000000000003e-02
 2.100000000000003e-02
 2.130000000000003e-02
 2.160000000000003e-02
 2.190000000000003e-02
 2.220000000000003e-02
 2.250000000000003e-02
 2.280000000000003e-02
 2.310000000000003e-02
 2.340000000000004e-02
 2.370000000000003e-02
 2.400000000000004e-02
 2.430000000000004e-02
 2.460000000000004e-02
 2.490000000000004e-02
 2.520000000000004e-02
 2.550000000000004e-02
 2.580000000000004e-02
 2.610000000000004e-02
 2.640000000000004e-02
 2.670000000000004e-02
 2.700000000000004e-02
 2.730000000000004e-02
 2.760000000000004e-02
 2.790000000000005e-02
 2.820000000000004e-02
 2.850000000000005e-02
 2.880000000000005e-02
 2.910000000000005e-02
 2.940000000000005e-02
 2.970000000000005e-02
 3.000000000000005e-02
 3.030000000000005e-02
 3.060000000000005e-02
 3.090000000000005e-02
 3.120000000000005e-02
 3.150000000000006e-02
 3.180000000000006e-02
 3.210000000000005e-02
 3.240000000000005e-02
 3.270000000000005e-02
 3.300000000000004e-02
 3.330000000000004e-02
 3.360000000000004e-02

  }

  Locations (115) {
eeeiiiiiii
iiiiiiiiii
iifiiiiiii
iiiiiiiiii
iiiiiiiiii
iiiiiiiiii
iiiiiiiiii
iiiiiiiiii
iiiiiiiiii
iifiiiiiii
iiiiiiiiii
iieee
  }

  Elements (116) {
 1 0 1
 1 1 2
 1 2 3
 1 3 4
 1 4 5
 1 5 6
 1 6 7
 1 7 8
 1 8 9
 1 9 10
 1 10 11
 1 11 12
 1 12 13
 1 13 14
 1 14 15
 1 15 16
 1 16 17
 1 17 18
 1 18 19
 1 19 20
 1 20 21
 1 21 22
 1 22 23
 1 23 24
 1 24 25
 1 25 26
 1 26 27
 1 27 28
 1 28 29
 1 29 30
 1 30 31
 1 31 32
 1 32 33
 1 33 34
 1 34 35
 1 35 36
 1 36 37
 1 37 38
 1 38 39
 1 39 40
 1 40 41
 1 41 42
 1 42 43
 1 43 44
 1 44 45
 1 45 46
 1 46 47
 1 47 48
 1 48 49
 1 49 50
 1 50 51
 1 51 52
 1 52 53
 1 53 54
 1 54 55
 1 55 56
 1 56 57
 1 57 58
 1 58 59
 1 59 60
 1 60 61
 1 61 62
 1 62 63
 1 63 64
 1 64 65
 1 65 66
 1 66 67
 1 67 68
 1 68 69
 1 69 70
 1 70 71
 1 71 72
 1 72 73
 1 73 74
 1 74 75
 1 75 76
 1 76 77
 1 77 78
 1 78 79
 1 79 80
 1 80 81
 1 81 82
 1 82 83
 1 83 84
 1 84 85
 1 85 86
 1 86 87
 1 87 88
 1 88 89
 1 89 90
 1 90 91
 1 91 92
 1 92 93
 1 93 94
 1 94 95
 1 95 96
 1 96 97
 1 97 98
 1 98 99
 1 99 100
 1 100 101
 1 101 102
 1 102 103
 1 103 104
 1 104 105
 1 105 106
 1 106 107
 1 107 108
 1 108 109
 1 109 110
 1 110 111
 1 111 112
 1 112 113
 1 113 114
 0 2
 0 112

  }

  Region ("contact_0") {
    material = GaAs
    Elements (2) {
 0 1
    }
  }

  Region ("left_nn") {
    material = GaAs
    Elements (20) {
 2 3 4 5 6 7 8 9 10 11
 12 13 14 15 16 17 18 19 20 21

    }
  }

  Region ("mid_n") {
    material = GaAs
    Elements (70) {
 22 23 24 25 26 27 28 29 30 31
 32 33 34 35 36 37 38 39 40 41
 42 43 44 45 46 47 48 49 50 51
 52 53 54 55 56 57 58 59 60 61
 62 63 64 65 66 67 68 69 70 71
 72 73 74 75 76 77 78 79 80 81
 82 83 84 85 86 87 88 89 90 91

    }
  }

  Region ("right_nn") {
    material = GaAs
    Elements (20) {
 92 93 94 95 96 97 98 99 100 101
 102 103 104 105 106 107 108 109 110 111

    }
  }

  Region ("contact_1") {
    material = GaAs
    Elements (2) {
 112 113
    }
  }

  Region ("Source") {
    material = Contact
    Elements (1) {
 114
    }
  }

  Region ("Drain") {
    material = Contact
    Elements (1) {
 115
    }
  }

}
