DF-ISE text

Info {
  version = 1.0
  type    = grid
  dimension   = 1
  nb_vertices = 215
  nb_edges    = 0
  nb_faces    = 0
  nb_elements = 216
  nb_regions  = 7
  regions     = [ "contact_0" "left_nn" "mid_n" "right_nn" "contact_1" "Source" "Drain" ]
  materials   = [ GaAs GaAs GaAs GaAs GaAs Contact Contact ]
}

Data {

  CoordSystem {
    translate = [  0.000000000000000e+00 0.000000000000000e+00 0.000000000000000e+00 ]
    transform = [  1.000000000000000e+00 0.000000000000000e+00 0.000000000000000e+00
 0.000000000000000e+00 1.000000000000000e+00 0.000000000000000e+00
 0.000000000000000e+00 0.000000000000000e+00 1.000000000000000e+00
 ]
  }

  Vertices (215) {
 -5.999999999999999e-04
 -3.000000000000000e-04
 0.000000000000000e+00
 3.000000000000000e-04
 5.999999999999999e-04
 8.999999999999999e-04
 1.200000000000000e-03
 1.500000000000000e-03
 1.800000000000000e-03
 2.100000000000000e-03
 2.400000000000000e-03
 2.700000000000000e-03
 3.000000000000000e-03
 3.300000000000000e-03
 3.599999999999999e-03
 3.899999999999999e-03
 4.199999999999999e-03
 4.499999999999999e-03
 4.799999999999999e-03
 5.099999999999999e-03
 5.399999999999999e-03
 5.699999999999998e-03
 5.999999999999998e-03
 6.299999999999998e-03
 6.599999999999998e-03
 6.899999999999997e-03
 7.199999999999997e-03
 7.499999999999997e-03
 7.799999999999997e-03
 8.099999999999998e-03
 8.399999999999998e-03
 8.699999999999999e-03
 8.999999999999999e-03
 9.300000000000001e-03
 9.600000000000001e-03
 9.900000000000003e-03
 1.020000000000000e-02
 1.050000000000000e-02
 1.080000000000000e-02
 1.110000000000001e-02
 1.140000000000001e-02
 1.170000000000001e-02
 1.200000000000001e-02
 1.230000000000001e-02
 1.260000000000001e-02
 1.290000000000001e-02
 1.320000000000001e-02
 1.350000000000001e-02
 1.380000000000001e-02
 1.410000000000001e-02
 1.440000000000001e-02
 1.470000000000001e-02
 1.500000000000002e-02
 1.530000000000001e-02
 1.560000000000001e-02
 1.590000000000001e-02
 1.620000000000002e-02
 1.650000000000002e-02
 1.680000000000002e-02
 1.710000000000002e-02
 1.740000000000002e-02
 1.770000000000002e-02
 1.800000000000002e-02
 1.830000000000002e-02
 1.860000000000002e-02
 1.890000000000002e-02
 1.920000000000002e-02
 1.950000000000002e-02
 1.980000000000003e-02
 2.010000000000003e-02
 2.040000000000003e-02
 2.070000000000003e-02
 2.100000000000003e-02
 2.130000000000003e-02
 2.160000000000003e-02
 2.190000000000003e-02
 2.220000000000003e-02
 2.250000000000003e-02
 2.280000000000003e-02
 2.310000000000003e-02
 2.340000000000004e-02
 2.370000000000003e-02
 2.400000000000004e-02
 2.430000000000004e-02
 2.460000000000004e-02
 2.490000000000004e-02
 2.520000000000004e-02
 2.550000000000004e-02
 2.580000000000004e-02
 2.610000000000004e-02
 2.640000000000004e-02
 2.670000000000004e-02
 2.700000000000004e-02
 2.730000000000004e-02
 2.760000000000004e-02
 2.790000000000005e-02
 2.820000000000004e-02
 2.850000000000005e-02
 2.880000000000005e-02
 2.910000000000005e-02
 2.940000000000005e-02
 2.970000000000005e-02
 3.000000000000005e-02
 3.030000000000005e-02
 3.060000000000005e-02
 3.090000000000005e-02
 3.120000000000005e-02
 3.150000000000006e-02
 3.180000000000006e-02
 3.210000000000005e-02
 3.240000000000005e-02
 3.270000000000005e-02
 3.300000000000004e-02
 3.330000000000004e-02
 3.360000000000004e-02
 3.390000000000003e-02
 3.420000000000003e-02
 3.450000000000003e-02
 3.480000000000003e-02
 3.510000000000002e-02
 3.540000000000002e-02
 3.570000000000002e-02
 3.600000000000001e-02
 3.630000000000001e-02
 3.660000000000001e-02
 3.690000000000000e-02
 3.720000000000000e-02
 3.750000000000000e-02
 3.780000000000000e-02
 3.809999999999999e-02
 3.839999999999999e-02
 3.869999999999999e-02
 3.899999999999999e-02
 3.929999999999998e-02
 3.959999999999998e-02
 3.989999999999998e-02
 4.019999999999997e-02
 4.049999999999997e-02
 4.079999999999997e-02
 4.109999999999996e-02
 4.139999999999996e-02
 4.169999999999996e-02
 4.199999999999995e-02
 4.229999999999996e-02
 4.259999999999995e-02
 4.289999999999995e-02
 4.319999999999995e-02
 4.349999999999994e-02
 4.379999999999994e-02
 4.409999999999994e-02
 4.439999999999993e-02
 4.469999999999993e-02
 4.499999999999993e-02
 4.529999999999992e-02
 4.559999999999993e-02
 4.589999999999992e-02
 4.619999999999991e-02
 4.649999999999992e-02
 4.679999999999991e-02
 4.709999999999991e-02
 4.739999999999991e-02
 4.769999999999990e-02
 4.799999999999990e-02
 4.829999999999990e-02
 4.859999999999989e-02
 4.889999999999989e-02
 4.919999999999989e-02
 4.949999999999988e-02
 4.979999999999989e-02
 5.009999999999988e-02
 5.039999999999988e-02
 5.069999999999988e-02
 5.099999999999987e-02
 5.129999999999987e-02
 5.159999999999987e-02
 5.189999999999986e-02
 5.219999999999986e-02
 5.249999999999986e-02
 5.279999999999985e-02
 5.309999999999986e-02
 5.339999999999985e-02
 5.369999999999985e-02
 5.399999999999985e-02
 5.429999999999984e-02
 5.459999999999984e-02
 5.489999999999984e-02
 5.519999999999983e-02
 5.549999999999983e-02
 5.579999999999983e-02
 5.609999999999982e-02
 5.639999999999982e-02
 5.669999999999982e-02
 5.699999999999981e-02
 5.729999999999981e-02
 5.759999999999981e-02
 5.789999999999981e-02
 5.819999999999980e-02
 5.849999999999980e-02
 5.879999999999980e-02
 5.909999999999980e-02
 5.939999999999979e-02
 5.969999999999979e-02
 5.999999999999979e-02
 6.029999999999978e-02
 6.059999999999978e-02
 6.089999999999978e-02
 6.119999999999978e-02
 6.149999999999977e-02
 6.179999999999977e-02
 6.209999999999977e-02
 6.239999999999976e-02
 6.269999999999976e-02
 6.299999999999976e-02
 6.329999999999976e-02
 6.359999999999975e-02

  }

  Locations (215) {
eeeiiiiiii
iiiiiiiiii
iiiiiiiiii
iiiiiiiiii
iiiiiiiiii
iifiiiiiii
iiiiiiiiii
iiiiiiiiii
iiiiiiiiii
iiiiiiiiii
iiiiiiiiii
iiiiiiiiii
iiiiiiiiii
iiiiiiiiii
iiiiiiiiii
iiiiiiiiii
iifiiiiiii
iiiiiiiiii
iiiiiiiiii
iiiiiiiiii
iiiiiiiiii
iieee
  }

  Elements (216) {
 1 0 1
 1 1 2
 1 2 3
 1 3 4
 1 4 5
 1 5 6
 1 6 7
 1 7 8
 1 8 9
 1 9 10
 1 10 11
 1 11 12
 1 12 13
 1 13 14
 1 14 15
 1 15 16
 1 16 17
 1 17 18
 1 18 19
 1 19 20
 1 20 21
 1 21 22
 1 22 23
 1 23 24
 1 24 25
 1 25 26
 1 26 27
 1 27 28
 1 28 29
 1 29 30
 1 30 31
 1 31 32
 1 32 33
 1 33 34
 1 34 35
 1 35 36
 1 36 37
 1 37 38
 1 38 39
 1 39 40
 1 40 41
 1 41 42
 1 42 43
 1 43 44
 1 44 45
 1 45 46
 1 46 47
 1 47 48
 1 48 49
 1 49 50
 1 50 51
 1 51 52
 1 52 53
 1 53 54
 1 54 55
 1 55 56
 1 56 57
 1 57 58
 1 58 59
 1 59 60
 1 60 61
 1 61 62
 1 62 63
 1 63 64
 1 64 65
 1 65 66
 1 66 67
 1 67 68
 1 68 69
 1 69 70
 1 70 71
 1 71 72
 1 72 73
 1 73 74
 1 74 75
 1 75 76
 1 76 77
 1 77 78
 1 78 79
 1 79 80
 1 80 81
 1 81 82
 1 82 83
 1 83 84
 1 84 85
 1 85 86
 1 86 87
 1 87 88
 1 88 89
 1 89 90
 1 90 91
 1 91 92
 1 92 93
 1 93 94
 1 94 95
 1 95 96
 1 96 97
 1 97 98
 1 98 99
 1 99 100
 1 100 101
 1 101 102
 1 102 103
 1 103 104
 1 104 105
 1 105 106
 1 106 107
 1 107 108
 1 108 109
 1 109 110
 1 110 111
 1 111 112
 1 112 113
 1 113 114
 1 114 115
 1 115 116
 1 116 117
 1 117 118
 1 118 119
 1 119 120
 1 120 121
 1 121 122
 1 122 123
 1 123 124
 1 124 125
 1 125 126
 1 126 127
 1 127 128
 1 128 129
 1 129 130
 1 130 131
 1 131 132
 1 132 133
 1 133 134
 1 134 135
 1 135 136
 1 136 137
 1 137 138
 1 138 139
 1 139 140
 1 140 141
 1 141 142
 1 142 143
 1 143 144
 1 144 145
 1 145 146
 1 146 147
 1 147 148
 1 148 149
 1 149 150
 1 150 151
 1 151 152
 1 152 153
 1 153 154
 1 154 155
 1 155 156
 1 156 157
 1 157 158
 1 158 159
 1 159 160
 1 160 161
 1 161 162
 1 162 163
 1 163 164
 1 164 165
 1 165 166
 1 166 167
 1 167 168
 1 168 169
 1 169 170
 1 170 171
 1 171 172
 1 172 173
 1 173 174
 1 174 175
 1 175 176
 1 176 177
 1 177 178
 1 178 179
 1 179 180
 1 180 181
 1 181 182
 1 182 183
 1 183 184
 1 184 185
 1 185 186
 1 186 187
 1 187 188
 1 188 189
 1 189 190
 1 190 191
 1 191 192
 1 192 193
 1 193 194
 1 194 195
 1 195 196
 1 196 197
 1 197 198
 1 198 199
 1 199 200
 1 200 201
 1 201 202
 1 202 203
 1 203 204
 1 204 205
 1 205 206
 1 206 207
 1 207 208
 1 208 209
 1 209 210
 1 210 211
 1 211 212
 1 212 213
 1 213 214
 0 2
 0 212

  }

  Region ("contact_0") {
    material = GaAs
    Elements (2) {
 0 1
    }
  }

  Region ("left_nn") {
    material = GaAs
    Elements (50) {
 2 3 4 5 6 7 8 9 10 11
 12 13 14 15 16 17 18 19 20 21
 22 23 24 25 26 27 28 29 30 31
 32 33 34 35 36 37 38 39 40 41
 42 43 44 45 46 47 48 49 50 51

    }
  }

  Region ("mid_n") {
    material = GaAs
    Elements (110) {
 52 53 54 55 56 57 58 59 60 61
 62 63 64 65 66 67 68 69 70 71
 72 73 74 75 76 77 78 79 80 81
 82 83 84 85 86 87 88 89 90 91
 92 93 94 95 96 97 98 99 100 101
 102 103 104 105 106 107 108 109 110 111
 112 113 114 115 116 117 118 119 120 121
 122 123 124 125 126 127 128 129 130 131
 132 133 134 135 136 137 138 139 140 141
 142 143 144 145 146 147 148 149 150 151
 152 153 154 155 156 157 158 159 160 161

    }
  }

  Region ("right_nn") {
    material = GaAs
    Elements (50) {
 162 163 164 165 166 167 168 169 170 171
 172 173 174 175 176 177 178 179 180 181
 182 183 184 185 186 187 188 189 190 191
 192 193 194 195 196 197 198 199 200 201
 202 203 204 205 206 207 208 209 210 211

    }
  }

  Region ("contact_1") {
    material = GaAs
    Elements (2) {
 212 213
    }
  }

  Region ("Source") {
    material = Contact
    Elements (1) {
 214
    }
  }

  Region ("Drain") {
    material = Contact
    Elements (1) {
 215
    }
  }

}
