DF-ISE text

Info {
  version = 1.0
  type    = grid
  dimension   = 1
  nb_vertices = 39
  nb_edges    = 0
  nb_faces    = 0
  nb_elements = 40
  nb_regions  = 7
  regions     = [ "contact_0" "left_nn" "mid_n" "right_nn" "contact_1" "Source" "Drain" ]
  materials   = [ GaAs GaAs GaAs GaAs GaAs Contact Contact ]
}

Data {

  CoordSystem {
    translate = [  0.000000000000000e+00 0.000000000000000e+00 0.000000000000000e+00 ]
    transform = [  1.000000000000000e+00 0.000000000000000e+00 0.000000000000000e+00
 0.000000000000000e+00 1.000000000000000e+00 0.000000000000000e+00
 0.000000000000000e+00 0.000000000000000e+00 1.000000000000000e+00
 ]
  }

  Vertices (39) {
 -3.000000000000000e-03
 -1.500000000000000e-03
 0.000000000000000e+00
 1.500000000000000e-03
 3.000000000000000e-03
 4.500000000000000e-03
 6.000000000000000e-03
 7.500000000000000e-03
 8.999999999999999e-03
 1.050000000000000e-02
 1.200000000000000e-02
 1.350000000000000e-02
 1.500000000000000e-02
 1.650000000000000e-02
 1.800000000000000e-02
 1.950000000000000e-02
 2.100000000000000e-02
 2.250000000000000e-02
 2.400000000000000e-02
 2.550000000000000e-02
 2.700000000000000e-02
 2.850000000000000e-02
 3.000000000000000e-02
 3.150000000000000e-02
 3.300000000000000e-02
 3.450000000000000e-02
 3.600000000000000e-02
 3.750000000000000e-02
 3.900000000000000e-02
 4.050000000000000e-02
 4.200000000000000e-02
 4.350000000000000e-02
 4.500000000000000e-02
 4.650000000000000e-02
 4.800000000000000e-02
 4.950000000000000e-02
 5.100000000000000e-02
 5.250000000000000e-02
 5.400000000000000e-02

  }

  Locations (39) {
eeeiiiiiii
iifiiiiiii
iiiiiifiii
iiiiiieee
  }

  Elements (40) {
 1 0 1
 1 1 2
 1 2 3
 1 3 4
 1 4 5
 1 5 6
 1 6 7
 1 7 8
 1 8 9
 1 9 10
 1 10 11
 1 11 12
 1 12 13
 1 13 14
 1 14 15
 1 15 16
 1 16 17
 1 17 18
 1 18 19
 1 19 20
 1 20 21
 1 21 22
 1 22 23
 1 23 24
 1 24 25
 1 25 26
 1 26 27
 1 27 28
 1 28 29
 1 29 30
 1 30 31
 1 31 32
 1 32 33
 1 33 34
 1 34 35
 1 35 36
 1 36 37
 1 37 38
 0 2
 0 36

  }

  Region ("contact_0") {
    material = GaAs
    Elements (2) {
 0 1
    }
  }

  Region ("left_nn") {
    material = GaAs
    Elements (10) {
 2 3 4 5 6 7 8 9 10 11

    }
  }

  Region ("mid_n") {
    material = GaAs
    Elements (14) {
 12 13 14 15 16 17 18 19 20 21
 22 23 24 25
    }
  }

  Region ("right_nn") {
    material = GaAs
    Elements (10) {
 26 27 28 29 30 31 32 33 34 35

    }
  }

  Region ("contact_1") {
    material = GaAs
    Elements (2) {
 36 37
    }
  }

  Region ("Source") {
    material = Contact
    Elements (1) {
 38
    }
  }

  Region ("Drain") {
    material = Contact
    Elements (1) {
 39
    }
  }

}
