DF-ISE text

Info {
  version = 1.0
  type    = grid
  dimension   = 1
  nb_vertices = 125
  nb_edges    = 0
  nb_faces    = 0
  nb_elements = 126
  nb_regions  = 7
  regions     = [ "contact_0" "left_nn" "mid_n" "right_nn" "contact_1" "Source" "Drain" ]
  materials   = [ GaAs GaAs GaAs GaAs GaAs Contact Contact ]
}

Data {

  CoordSystem {
    translate = [  0.000000000000000e+00 0.000000000000000e+00 0.000000000000000e+00 ]
    transform = [  1.000000000000000e+00 0.000000000000000e+00 0.000000000000000e+00
 0.000000000000000e+00 1.000000000000000e+00 0.000000000000000e+00
 0.000000000000000e+00 0.000000000000000e+00 1.000000000000000e+00
 ]
  }

  Vertices (125) {
 -2.400000000000000e-03
 -1.200000000000000e-03
 0.000000000000000e+00
 1.200000000000000e-03
 2.400000000000000e-03
 3.599999999999999e-03
 4.800000000000000e-03
 6.000000000000000e-03
 7.200000000000000e-03
 8.400000000000001e-03
 9.599999999999999e-03
 1.080000000000000e-02
 1.200000000000000e-02
 1.320000000000000e-02
 1.440000000000000e-02
 1.560000000000000e-02
 1.680000000000000e-02
 1.800000000000000e-02
 1.919999999999999e-02
 2.039999999999999e-02
 2.159999999999999e-02
 2.279999999999999e-02
 2.399999999999999e-02
 2.519999999999999e-02
 2.639999999999999e-02
 2.759999999999999e-02
 2.879999999999999e-02
 2.999999999999999e-02
 3.119999999999999e-02
 3.239999999999999e-02
 3.359999999999999e-02
 3.480000000000000e-02
 3.600000000000000e-02
 3.720000000000000e-02
 3.840000000000000e-02
 3.960000000000001e-02
 4.080000000000001e-02
 4.200000000000002e-02
 4.320000000000002e-02
 4.440000000000002e-02
 4.560000000000002e-02
 4.680000000000002e-02
 4.800000000000003e-02
 4.920000000000003e-02
 5.040000000000004e-02
 5.160000000000003e-02
 5.280000000000004e-02
 5.400000000000004e-02
 5.520000000000005e-02
 5.640000000000005e-02
 5.760000000000005e-02
 5.880000000000005e-02
 6.000000000000006e-02
 6.120000000000006e-02
 6.240000000000006e-02
 6.360000000000006e-02
 6.480000000000007e-02
 6.600000000000007e-02
 6.720000000000008e-02
 6.840000000000007e-02
 6.960000000000008e-02
 7.080000000000009e-02
 7.200000000000009e-02
 7.320000000000008e-02
 7.440000000000009e-02
 7.560000000000010e-02
 7.680000000000009e-02
 7.800000000000010e-02
 7.920000000000010e-02
 8.040000000000011e-02
 8.160000000000010e-02
 8.280000000000011e-02
 8.400000000000012e-02
 8.520000000000012e-02
 8.640000000000012e-02
 8.760000000000012e-02
 8.880000000000013e-02
 9.000000000000012e-02
 9.120000000000013e-02
 9.240000000000013e-02
 9.360000000000014e-02
 9.480000000000013e-02
 9.600000000000014e-02
 9.720000000000015e-02
 9.840000000000015e-02
 9.960000000000015e-02
 1.008000000000002e-01
 1.020000000000002e-01
 1.032000000000002e-01
 1.044000000000002e-01
 1.056000000000002e-01
 1.068000000000002e-01
 1.080000000000002e-01
 1.092000000000002e-01
 1.104000000000002e-01
 1.116000000000002e-01
 1.128000000000002e-01
 1.140000000000002e-01
 1.152000000000002e-01
 1.164000000000002e-01
 1.176000000000002e-01
 1.188000000000002e-01
 1.200000000000002e-01
 1.212000000000002e-01
 1.224000000000002e-01
 1.236000000000002e-01
 1.248000000000002e-01
 1.260000000000002e-01
 1.272000000000002e-01
 1.284000000000002e-01
 1.296000000000002e-01
 1.308000000000002e-01
 1.320000000000002e-01
 1.332000000000002e-01
 1.344000000000002e-01
 1.356000000000001e-01
 1.368000000000001e-01
 1.380000000000001e-01
 1.392000000000001e-01
 1.404000000000001e-01
 1.416000000000001e-01
 1.428000000000001e-01
 1.440000000000000e-01
 1.452000000000001e-01
 1.464000000000000e-01

  }

  Locations (125) {
eeeiiiiiii
iiiiiiiiii
iifiiiiiii
iiiiiiiiii
iiiiiiiiii
iiiiiiiiii
iiiiiiiiii
iiiiiiiiii
iiiiiiiiii
iiiiiiiiii
iifiiiiiii
iiiiiiiiii
iieee
  }

  Elements (126) {
 1 0 1
 1 1 2
 1 2 3
 1 3 4
 1 4 5
 1 5 6
 1 6 7
 1 7 8
 1 8 9
 1 9 10
 1 10 11
 1 11 12
 1 12 13
 1 13 14
 1 14 15
 1 15 16
 1 16 17
 1 17 18
 1 18 19
 1 19 20
 1 20 21
 1 21 22
 1 22 23
 1 23 24
 1 24 25
 1 25 26
 1 26 27
 1 27 28
 1 28 29
 1 29 30
 1 30 31
 1 31 32
 1 32 33
 1 33 34
 1 34 35
 1 35 36
 1 36 37
 1 37 38
 1 38 39
 1 39 40
 1 40 41
 1 41 42
 1 42 43
 1 43 44
 1 44 45
 1 45 46
 1 46 47
 1 47 48
 1 48 49
 1 49 50
 1 50 51
 1 51 52
 1 52 53
 1 53 54
 1 54 55
 1 55 56
 1 56 57
 1 57 58
 1 58 59
 1 59 60
 1 60 61
 1 61 62
 1 62 63
 1 63 64
 1 64 65
 1 65 66
 1 66 67
 1 67 68
 1 68 69
 1 69 70
 1 70 71
 1 71 72
 1 72 73
 1 73 74
 1 74 75
 1 75 76
 1 76 77
 1 77 78
 1 78 79
 1 79 80
 1 80 81
 1 81 82
 1 82 83
 1 83 84
 1 84 85
 1 85 86
 1 86 87
 1 87 88
 1 88 89
 1 89 90
 1 90 91
 1 91 92
 1 92 93
 1 93 94
 1 94 95
 1 95 96
 1 96 97
 1 97 98
 1 98 99
 1 99 100
 1 100 101
 1 101 102
 1 102 103
 1 103 104
 1 104 105
 1 105 106
 1 106 107
 1 107 108
 1 108 109
 1 109 110
 1 110 111
 1 111 112
 1 112 113
 1 113 114
 1 114 115
 1 115 116
 1 116 117
 1 117 118
 1 118 119
 1 119 120
 1 120 121
 1 121 122
 1 122 123
 1 123 124
 0 2
 0 122

  }

  Region ("contact_0") {
    material = GaAs
    Elements (2) {
 0 1
    }
  }

  Region ("left_nn") {
    material = GaAs
    Elements (20) {
 2 3 4 5 6 7 8 9 10 11
 12 13 14 15 16 17 18 19 20 21

    }
  }

  Region ("mid_n") {
    material = GaAs
    Elements (80) {
 22 23 24 25 26 27 28 29 30 31
 32 33 34 35 36 37 38 39 40 41
 42 43 44 45 46 47 48 49 50 51
 52 53 54 55 56 57 58 59 60 61
 62 63 64 65 66 67 68 69 70 71
 72 73 74 75 76 77 78 79 80 81
 82 83 84 85 86 87 88 89 90 91
 92 93 94 95 96 97 98 99 100 101

    }
  }

  Region ("right_nn") {
    material = GaAs
    Elements (20) {
 102 103 104 105 106 107 108 109 110 111
 112 113 114 115 116 117 118 119 120 121

    }
  }

  Region ("contact_1") {
    material = GaAs
    Elements (2) {
 122 123
    }
  }

  Region ("Source") {
    material = Contact
    Elements (1) {
 124
    }
  }

  Region ("Drain") {
    material = Contact
    Elements (1) {
 125
    }
  }

}
