DF-ISE text

Info {
  version = 1.0
  type    = grid
  dimension   = 1
  nb_vertices = 96
  nb_edges    = 0
  nb_faces    = 0
  nb_elements = 97
  nb_regions  = 11
  regions     = [ "contact_0" "left_n" "iface1a" "iface1b" "mid_bound" "iface2b" "iface2a" "right_p" "contact_1" "Source" "Drain" ]
  materials   = [ GaN GaN GaN InGaN InGaN InGaN AlGaN AlGaN AlGaN Contact Contact ]
}

Data {

  CoordSystem {
    translate = [  0.000000000000000e+00 0.000000000000000e+00 0.000000000000000e+00 ]
    transform = [  1.000000000000000e+00 0.000000000000000e+00 0.000000000000000e+00
 0.000000000000000e+00 1.000000000000000e+00 0.000000000000000e+00
 0.000000000000000e+00 0.000000000000000e+00 1.000000000000000e+00
 ]
  }

  Vertices (96) {
 -2.000000000000000e-03
 -1.000000000000000e-03
 0.000000000000000e+00
 1.000000000000000e-03
 2.000000000000000e-03
 3.000000000000000e-03
 4.000000000000000e-03
 5.000000000000000e-03
 6.000000000000000e-03
 7.000000000000000e-03
 8.000000000000000e-03
 8.999999999999999e-03
 1.000000000000000e-02
 1.100000000000000e-02
 1.200000000000000e-02
 1.300000000000000e-02
 1.400000000000000e-02
 1.500000000000000e-02
 1.505000000000000e-02
 1.510000000000000e-02
 1.515000000000000e-02
 1.520000000000000e-02
 1.525000000000000e-02
 1.530000000000000e-02
 1.535000000000000e-02
 1.540000000000001e-02
 1.565000000000000e-02
 1.590000000000000e-02
 1.615000000000000e-02
 1.640000000000000e-02
 1.665000000000001e-02
 1.690000000000001e-02
 1.715000000000001e-02
 1.740000000000001e-02
 1.765000000000001e-02
 1.790000000000001e-02
 1.815000000000001e-02
 1.840000000000001e-02
 1.845000000000001e-02
 1.850000000000001e-02
 1.855000000000001e-02
 1.860000000000001e-02
 1.865000000000001e-02
 1.870000000000001e-02
 1.875000000000001e-02
 1.880000000000001e-02
 1.905000000000001e-02
 1.930000000000001e-02
 1.955000000000001e-02
 1.980000000000001e-02
 2.005000000000001e-02
 2.030000000000001e-02
 2.055000000000001e-02
 2.080000000000001e-02
 2.105000000000001e-02
 2.130000000000001e-02
 2.155000000000001e-02
 2.180000000000001e-02
 2.205000000000001e-02
 2.230000000000001e-02
 2.255000000000001e-02
 2.280000000000001e-02
 2.305000000000001e-02
 2.330000000000001e-02
 2.355000000000001e-02
 2.380000000000001e-02
 2.405000000000001e-02
 2.430000000000001e-02
 2.455000000000001e-02
 2.480000000000001e-02
 2.505000000000001e-02
 2.530000000000001e-02
 2.555000000000001e-02
 2.580000000000001e-02
 2.605000000000001e-02
 2.630000000000001e-02
 2.655000000000001e-02
 2.680000000000001e-02
 2.705000000000001e-02
 2.730000000000001e-02
 2.755000000000001e-02
 2.780000000000001e-02
 2.805000000000001e-02
 2.830000000000001e-02
 2.855000000000001e-02
 2.880000000000001e-02
 2.905000000000001e-02
 2.930000000000001e-02
 2.955000000000001e-02
 2.980000000000001e-02
 3.005000000000001e-02
 3.030000000000001e-02
 3.055000000000001e-02
 3.080000000000001e-02
 3.105000000000001e-02
 3.130000000000001e-02

  }

  Locations (96) {
eeeiiiiiii
iiiiiiifii
ifiiifiiii
iiiiiiifii
ifiiifiiii
iiiiiiiiii
iiiiiiiiii
iiiiiiiiii
iiiiiiiiii
iiieee
  }

  Elements (97) {
 1 0 1
 1 1 2
 1 2 3
 1 3 4
 1 4 5
 1 5 6
 1 6 7
 1 7 8
 1 8 9
 1 9 10
 1 10 11
 1 11 12
 1 12 13
 1 13 14
 1 14 15
 1 15 16
 1 16 17
 1 17 18
 1 18 19
 1 19 20
 1 20 21
 1 21 22
 1 22 23
 1 23 24
 1 24 25
 1 25 26
 1 26 27
 1 27 28
 1 28 29
 1 29 30
 1 30 31
 1 31 32
 1 32 33
 1 33 34
 1 34 35
 1 35 36
 1 36 37
 1 37 38
 1 38 39
 1 39 40
 1 40 41
 1 41 42
 1 42 43
 1 43 44
 1 44 45
 1 45 46
 1 46 47
 1 47 48
 1 48 49
 1 49 50
 1 50 51
 1 51 52
 1 52 53
 1 53 54
 1 54 55
 1 55 56
 1 56 57
 1 57 58
 1 58 59
 1 59 60
 1 60 61
 1 61 62
 1 62 63
 1 63 64
 1 64 65
 1 65 66
 1 66 67
 1 67 68
 1 68 69
 1 69 70
 1 70 71
 1 71 72
 1 72 73
 1 73 74
 1 74 75
 1 75 76
 1 76 77
 1 77 78
 1 78 79
 1 79 80
 1 80 81
 1 81 82
 1 82 83
 1 83 84
 1 84 85
 1 85 86
 1 86 87
 1 87 88
 1 88 89
 1 89 90
 1 90 91
 1 91 92
 1 92 93
 1 93 94
 1 94 95
 0 2
 0 93

  }

  Region ("contact_0") {
    material = GaN
    Elements (2) {
 0 1
    }
  }

  Region ("left_n") {
    material = GaN
    Elements (15) {
 2 3 4 5 6 7 8 9 10 11
 12 13 14 15 16
    }
  }

  Region ("iface1a") {
    material = GaN
    Elements (4) {
 17 18 19 20
    }
  }

  Region ("iface1b") {
    material = InGaN
    Elements (4) {
 21 22 23 24
    }
  }

  Region ("mid_bound") {
    material = InGaN
    Elements (12) {
 25 26 27 28 29 30 31 32 33 34
 35 36
    }
  }

  Region ("iface2b") {
    material = InGaN
    Elements (4) {
 37 38 39 40
    }
  }

  Region ("iface2a") {
    material = AlGaN
    Elements (4) {
 41 42 43 44
    }
  }

  Region ("right_p") {
    material = AlGaN
    Elements (48) {
 45 46 47 48 49 50 51 52 53 54
 55 56 57 58 59 60 61 62 63 64
 65 66 67 68 69 70 71 72 73 74
 75 76 77 78 79 80 81 82 83 84
 85 86 87 88 89 90 91 92
    }
  }

  Region ("contact_1") {
    material = AlGaN
    Elements (2) {
 93 94
    }
  }

  Region ("Source") {
    material = Contact
    Elements (1) {
 95
    }
  }

  Region ("Drain") {
    material = Contact
    Elements (1) {
 96
    }
  }

}
