DF-ISE text

Info {
  version = 1.0
  type    = grid
  dimension   = 1
  nb_vertices = 229
  nb_edges    = 0
  nb_faces    = 0
  nb_elements = 230
  nb_regions  = 15
  regions     = [ "PML_mx" "left_p" "left_i" "barrier1" "iface1a" "iface1b" "mid_bound" "iface2b" "iface2a" "barrier2" "right_i" "right_n" "PML_px" "Source" "Drain" ]
  materials   = [ GaAs GaAs GaAs GaAs GaAs InGaAs InGaAs InGaAs GaAs GaAs GaAs GaAs GaAs Contact Contact ]
}

Data {

  CoordSystem {
    translate = [  0.000000000000000e+00 0.000000000000000e+00 0.000000000000000e+00 ]
    transform = [  1.000000000000000e+00 0.000000000000000e+00 0.000000000000000e+00
 0.000000000000000e+00 1.000000000000000e+00 0.000000000000000e+00
 0.000000000000000e+00 0.000000000000000e+00 1.000000000000000e+00
 ]
  }

  Vertices (229) {
 -1.500000000000000e-02
 -1.480000000000000e-02
 -1.460000000000000e-02
 -1.440000000000000e-02
 -1.420000000000000e-02
 -1.400000000000000e-02
 -1.380000000000000e-02
 -1.360000000000000e-02
 -1.340000000000001e-02
 -1.320000000000001e-02
 -1.300000000000001e-02
 -1.280000000000001e-02
 -1.260000000000001e-02
 -1.240000000000001e-02
 -1.220000000000001e-02
 -1.200000000000001e-02
 -1.180000000000001e-02
 -1.160000000000001e-02
 -1.140000000000001e-02
 -1.120000000000001e-02
 -1.100000000000001e-02
 -1.080000000000001e-02
 -1.060000000000002e-02
 -1.040000000000002e-02
 -1.020000000000002e-02
 -1.000000000000002e-02
 -9.800000000000019e-03
 -9.600000000000020e-03
 -9.400000000000019e-03
 -9.200000000000021e-03
 -9.000000000000022e-03
 -8.800000000000021e-03
 -8.600000000000023e-03
 -8.400000000000024e-03
 -8.200000000000025e-03
 -8.000000000000024e-03
 -7.800000000000025e-03
 -7.600000000000024e-03
 -7.400000000000025e-03
 -7.200000000000024e-03
 -7.000000000000024e-03
 -6.800000000000024e-03
 -6.600000000000023e-03
 -6.400000000000024e-03
 -6.200000000000023e-03
 -6.000000000000023e-03
 -5.800000000000023e-03
 -5.600000000000022e-03
 -5.400000000000023e-03
 -5.200000000000022e-03
 -5.000000000000022e-03
 -4.800000000000022e-03
 -4.600000000000022e-03
 -4.400000000000022e-03
 -4.200000000000021e-03
 -4.000000000000021e-03
 -3.800000000000021e-03
 -3.600000000000021e-03
 -3.400000000000021e-03
 -3.200000000000021e-03
 -3.000000000000020e-03
 -2.800000000000020e-03
 -2.600000000000020e-03
 -2.400000000000020e-03
 -2.200000000000020e-03
 -2.000000000000020e-03
 -1.800000000000020e-03
 -1.600000000000020e-03
 -1.400000000000020e-03
 -1.200000000000020e-03
 -1.000000000000020e-03
 -8.000000000000198e-04
 -6.000000000000199e-04
 -4.000000000000199e-04
 -2.000000000000198e-04
 -1.981748098955904e-17
 4.999999999999802e-04
 9.999999999999803e-04
 1.499999999999980e-03
 1.999999999999980e-03
 2.499999999999981e-03
 2.999999999999981e-03
 3.499999999999981e-03
 3.999999999999980e-03
 4.499999999999981e-03
 4.999999999999980e-03
 5.499999999999981e-03
 5.999999999999980e-03
 6.499999999999981e-03
 6.999999999999980e-03
 7.499999999999981e-03
 7.999999999999981e-03
 8.499999999999980e-03
 8.999999999999980e-03
 9.499999999999981e-03
 9.999999999999981e-03
 1.049999999999998e-02
 1.099999999999998e-02
 1.149999999999998e-02
 1.199999999999998e-02
 1.249999999999998e-02
 1.299999999999998e-02
 1.349999999999998e-02
 1.399999999999998e-02
 1.449999999999998e-02
 1.499999999999998e-02
 1.549999999999998e-02
 1.599999999999998e-02
 1.649999999999998e-02
 1.699999999999998e-02
 1.749999999999998e-02
 1.799999999999998e-02
 1.849999999999998e-02
 1.899999999999998e-02
 1.949999999999998e-02
 1.999999999999998e-02
 2.009999999999998e-02
 2.019999999999998e-02
 2.029999999999998e-02
 2.039999999999998e-02
 2.089999999999998e-02
 2.139999999999999e-02
 2.189999999999999e-02
 2.239999999999999e-02
 2.289999999999998e-02
 2.339999999999998e-02
 2.389999999999998e-02
 2.439999999999998e-02
 2.489999999999998e-02
 2.539999999999999e-02
 2.549999999999998e-02
 2.559999999999999e-02
 2.569999999999999e-02
 2.579999999999999e-02
 2.679999999999999e-02
 2.779999999999999e-02
 2.879999999999999e-02
 2.979999999999999e-02
 3.079999999999999e-02
 3.179999999999999e-02
 3.279999999999999e-02
 3.379999999999999e-02
 3.479999999999999e-02
 3.579999999999999e-02
 3.679999999999999e-02
 3.779999999999999e-02
 3.879999999999999e-02
 3.979999999999999e-02
 4.079999999999999e-02
 4.179999999999999e-02
 4.279999999999999e-02
 4.379999999999999e-02
 4.479999999999999e-02
 4.579999999999999e-02
 4.599999999999999e-02
 4.620000000000000e-02
 4.640000000000000e-02
 4.660000000000000e-02
 4.680000000000000e-02
 4.700000000000001e-02
 4.720000000000001e-02
 4.740000000000001e-02
 4.760000000000002e-02
 4.780000000000002e-02
 4.800000000000002e-02
 4.820000000000003e-02
 4.840000000000003e-02
 4.860000000000003e-02
 4.880000000000003e-02
 4.900000000000004e-02
 4.920000000000004e-02
 4.940000000000004e-02
 4.960000000000005e-02
 4.980000000000005e-02
 5.000000000000005e-02
 5.020000000000005e-02
 5.040000000000006e-02
 5.060000000000006e-02
 5.080000000000006e-02
 5.100000000000007e-02
 5.120000000000006e-02
 5.140000000000007e-02
 5.160000000000007e-02
 5.180000000000008e-02
 5.200000000000008e-02
 5.220000000000008e-02
 5.240000000000009e-02
 5.260000000000008e-02
 5.280000000000009e-02
 5.300000000000010e-02
 5.320000000000009e-02
 5.340000000000010e-02
 5.360000000000010e-02
 5.380000000000010e-02
 5.400000000000010e-02
 5.420000000000011e-02
 5.440000000000011e-02
 5.460000000000011e-02
 5.480000000000012e-02
 5.500000000000012e-02
 5.520000000000012e-02
 5.540000000000013e-02
 5.560000000000013e-02
 5.580000000000013e-02
 5.600000000000013e-02
 5.620000000000014e-02
 5.640000000000014e-02
 5.660000000000014e-02
 5.680000000000015e-02
 5.700000000000015e-02
 5.720000000000015e-02
 5.740000000000015e-02
 5.760000000000016e-02
 5.780000000000016e-02
 5.800000000000016e-02
 5.820000000000017e-02
 5.840000000000017e-02
 5.860000000000017e-02
 5.880000000000017e-02
 5.900000000000018e-02
 5.920000000000018e-02
 5.940000000000018e-02
 5.960000000000019e-02
 5.980000000000019e-02
 6.000000000000019e-02
 6.020000000000020e-02
 6.040000000000020e-02
 6.060000000000020e-02
 6.080000000000020e-02

  }

  Locations (229) {
iiiiiiiiii
iiiiiiiiii
iiiiiiiiii
iiiiiiiiii
iiiiiiiiii
iiiiiiiiii
iiiiiiiiii
iiiiieiiii
iiiiiiiiii
iiiiifiiii
iiiiiiiiif
iiiiififif
iiiiiiiiif
ififiifiii
iiifiiiiii
iiieiiiiii
iiiiiiiiii
iiiiiiiiii
iiiiiiiiii
iiiiiiiiii
iiiiiiiiii
iiiiiiiiii
iiiiiiiii
  }

  Elements (230) {
 1 0 1
 1 1 2
 1 2 3
 1 3 4
 1 4 5
 1 5 6
 1 6 7
 1 7 8
 1 8 9
 1 9 10
 1 10 11
 1 11 12
 1 12 13
 1 13 14
 1 14 15
 1 15 16
 1 16 17
 1 17 18
 1 18 19
 1 19 20
 1 20 21
 1 21 22
 1 22 23
 1 23 24
 1 24 25
 1 25 26
 1 26 27
 1 27 28
 1 28 29
 1 29 30
 1 30 31
 1 31 32
 1 32 33
 1 33 34
 1 34 35
 1 35 36
 1 36 37
 1 37 38
 1 38 39
 1 39 40
 1 40 41
 1 41 42
 1 42 43
 1 43 44
 1 44 45
 1 45 46
 1 46 47
 1 47 48
 1 48 49
 1 49 50
 1 50 51
 1 51 52
 1 52 53
 1 53 54
 1 54 55
 1 55 56
 1 56 57
 1 57 58
 1 58 59
 1 59 60
 1 60 61
 1 61 62
 1 62 63
 1 63 64
 1 64 65
 1 65 66
 1 66 67
 1 67 68
 1 68 69
 1 69 70
 1 70 71
 1 71 72
 1 72 73
 1 73 74
 1 74 75
 1 75 76
 1 76 77
 1 77 78
 1 78 79
 1 79 80
 1 80 81
 1 81 82
 1 82 83
 1 83 84
 1 84 85
 1 85 86
 1 86 87
 1 87 88
 1 88 89
 1 89 90
 1 90 91
 1 91 92
 1 92 93
 1 93 94
 1 94 95
 1 95 96
 1 96 97
 1 97 98
 1 98 99
 1 99 100
 1 100 101
 1 101 102
 1 102 103
 1 103 104
 1 104 105
 1 105 106
 1 106 107
 1 107 108
 1 108 109
 1 109 110
 1 110 111
 1 111 112
 1 112 113
 1 113 114
 1 114 115
 1 115 116
 1 116 117
 1 117 118
 1 118 119
 1 119 120
 1 120 121
 1 121 122
 1 122 123
 1 123 124
 1 124 125
 1 125 126
 1 126 127
 1 127 128
 1 128 129
 1 129 130
 1 130 131
 1 131 132
 1 132 133
 1 133 134
 1 134 135
 1 135 136
 1 136 137
 1 137 138
 1 138 139
 1 139 140
 1 140 141
 1 141 142
 1 142 143
 1 143 144
 1 144 145
 1 145 146
 1 146 147
 1 147 148
 1 148 149
 1 149 150
 1 150 151
 1 151 152
 1 152 153
 1 153 154
 1 154 155
 1 155 156
 1 156 157
 1 157 158
 1 158 159
 1 159 160
 1 160 161
 1 161 162
 1 162 163
 1 163 164
 1 164 165
 1 165 166
 1 166 167
 1 167 168
 1 168 169
 1 169 170
 1 170 171
 1 171 172
 1 172 173
 1 173 174
 1 174 175
 1 175 176
 1 176 177
 1 177 178
 1 178 179
 1 179 180
 1 180 181
 1 181 182
 1 182 183
 1 183 184
 1 184 185
 1 185 186
 1 186 187
 1 187 188
 1 188 189
 1 189 190
 1 190 191
 1 191 192
 1 192 193
 1 193 194
 1 194 195
 1 195 196
 1 196 197
 1 197 198
 1 198 199
 1 199 200
 1 200 201
 1 201 202
 1 202 203
 1 203 204
 1 204 205
 1 205 206
 1 206 207
 1 207 208
 1 208 209
 1 209 210
 1 210 211
 1 211 212
 1 212 213
 1 213 214
 1 214 215
 1 215 216
 1 216 217
 1 217 218
 1 218 219
 1 219 220
 1 220 221
 1 221 222
 1 222 223
 1 223 224
 1 224 225
 1 225 226
 1 226 227
 1 227 228
 0 75
 0 153

  }

  Region ("PML_mx") {
    material = GaAs
    Elements (75) {
 0 1 2 3 4 5 6 7 8 9
 10 11 12 13 14 15 16 17 18 19
 20 21 22 23 24 25 26 27 28 29
 30 31 32 33 34 35 36 37 38 39
 40 41 42 43 44 45 46 47 48 49
 50 51 52 53 54 55 56 57 58 59
 60 61 62 63 64 65 66 67 68 69
 70 71 72 73 74
    }
  }

  Region ("left_p") {
    material = GaAs
    Elements (20) {
 75 76 77 78 79 80 81 82 83 84
 85 86 87 88 89 90 91 92 93 94

    }
  }

  Region ("left_i") {
    material = GaAs
    Elements (14) {
 95 96 97 98 99 100 101 102 103 104
 105 106 107 108
    }
  }

  Region ("barrier1") {
    material = GaAs
    Elements (6) {
 109 110 111 112 113 114
    }
  }

  Region ("iface1a") {
    material = GaAs
    Elements (2) {
 115 116
    }
  }

  Region ("iface1b") {
    material = InGaAs
    Elements (2) {
 117 118
    }
  }

  Region ("mid_bound") {
    material = InGaAs
    Elements (10) {
 119 120 121 122 123 124 125 126 127 128

    }
  }

  Region ("iface2b") {
    material = InGaAs
    Elements (2) {
 129 130
    }
  }

  Region ("iface2a") {
    material = GaAs
    Elements (2) {
 131 132
    }
  }

  Region ("barrier2") {
    material = GaAs
    Elements (3) {
 133 134 135
    }
  }

  Region ("right_i") {
    material = GaAs
    Elements (7) {
 136 137 138 139 140 141 142
    }
  }

  Region ("right_n") {
    material = GaAs
    Elements (10) {
 143 144 145 146 147 148 149 150 151 152

    }
  }

  Region ("PML_px") {
    material = GaAs
    Elements (75) {
 153 154 155 156 157 158 159 160 161 162
 163 164 165 166 167 168 169 170 171 172
 173 174 175 176 177 178 179 180 181 182
 183 184 185 186 187 188 189 190 191 192
 193 194 195 196 197 198 199 200 201 202
 203 204 205 206 207 208 209 210 211 212
 213 214 215 216 217 218 219 220 221 222
 223 224 225 226 227
    }
  }

  Region ("Source") {
    material = Contact
    Elements (1) {
 228
    }
  }

  Region ("Drain") {
    material = Contact
    Elements (1) {
 229
    }
  }

}
