DF-ISE text

Info {
  version = 1.0
  type    = grid
  dimension   = 1
  nb_vertices = 187
  nb_edges    = 0
  nb_faces    = 0
  nb_elements = 188
  nb_regions  = 24
  regions     = [ "contact_0" "left_p" "left_i" "barrier1" "iface1a" "iface1b" "mid_bound" "iface2b" "iface2a" "barrier2" "right_i" "right_n" "contact_1" "contact_0" "left_n" "left_n2" "barrier1" "mid_bound" "barrier2" "right_n2" "right_n" "contact_1" "Source" "Drain" ]
  materials   = [ GaAs GaAs GaAs GaAs GaAs InGaAs InGaAs InGaAs GaAs GaAs GaAs GaAs GaAs GaAs GaAs GaAs AlGaAs GaAs AlGaAs GaAs GaAs GaAs Contact Contact ]
}

Data {

  CoordSystem {
    translate = [  0.000000000000000e+00 0.000000000000000e+00 0.000000000000000e+00 ]
    transform = [  1.000000000000000e+00 0.000000000000000e+00 0.000000000000000e+00
 0.000000000000000e+00 1.000000000000000e+00 0.000000000000000e+00
 0.000000000000000e+00 0.000000000000000e+00 1.000000000000000e+00
 ]
  }

  Vertices (187) {
 -1.400000000000000e-03
 -7.000000000000000e-04
 0.000000000000000e+00
 7.000000000000000e-04
 1.400000000000000e-03
 2.099999999999999e-03
 2.800000000000000e-03
 3.500000000000000e-03
 4.200000000000001e-03
 4.900000000000001e-03
 5.600000000000001e-03
 6.300000000000001e-03
 7.000000000000001e-03
 7.700000000000001e-03
 8.400000000000001e-03
 9.100000000000000e-03
 9.800000000000000e-03
 1.050000000000000e-02
 1.120000000000000e-02
 1.190000000000000e-02
 1.260000000000000e-02
 1.330000000000000e-02
 1.400000000000000e-02
 1.469999999999999e-02
 1.539999999999999e-02
 1.609999999999999e-02
 1.679999999999999e-02
 1.729999999999999e-02
 1.779999999999999e-02
 1.829999999999999e-02
 1.879999999999999e-02
 1.929999999999999e-02
 1.979999999999999e-02
 1.989999999999999e-02
 2.000000000000000e-02
 2.050000000000000e-02
 2.100000000000000e-02
 2.149999999999999e-02
 2.200000000000000e-02
 2.250000000000000e-02
 2.300000000000000e-02
 2.350000000000000e-02
 2.400000000000000e-02
 2.450000000000000e-02
 2.500000000000000e-02
 2.510000000000000e-02
 2.520000000000000e-02
 2.570000000000000e-02
 2.620000000000000e-02
 2.670000000000000e-02
 2.720000000000000e-02
 2.770000000000000e-02
 2.820000000000000e-02
 2.890000000000000e-02
 2.960000000000000e-02
 3.030000000000000e-02
 3.100000000000000e-02
 3.170000000000000e-02
 3.240000000000000e-02
 3.310000000000000e-02
 3.380000000000000e-02
 3.450000000000001e-02
 3.520000000000001e-02
 3.590000000000002e-02
 3.660000000000001e-02
 3.730000000000002e-02
 3.800000000000002e-02
 3.870000000000003e-02
 3.940000000000003e-02
 4.010000000000003e-02
 4.080000000000003e-02
 4.150000000000004e-02
 4.220000000000004e-02
 4.290000000000004e-02
 4.360000000000004e-02
 4.430000000000005e-02
 4.500000000000005e-02
 4.570000000000005e-02
 4.640000000000005e-02
 4.765000000000005e-02
 4.890000000000005e-02
 5.015000000000006e-02
 5.140000000000006e-02
 5.265000000000006e-02
 5.390000000000005e-02
 5.515000000000005e-02
 5.640000000000005e-02
 5.765000000000006e-02
 5.890000000000006e-02
 6.015000000000006e-02
 6.140000000000006e-02
 6.265000000000005e-02
 6.390000000000005e-02
 6.515000000000007e-02
 6.640000000000006e-02
 6.765000000000006e-02
 6.890000000000006e-02
 7.015000000000006e-02
 7.140000000000006e-02
 7.265000000000006e-02
 7.390000000000006e-02
 7.515000000000006e-02
 7.640000000000007e-02
 7.765000000000007e-02
 7.890000000000007e-02
 8.015000000000007e-02
 8.140000000000006e-02
 8.265000000000006e-02
 8.390000000000006e-02
 8.515000000000006e-02
 8.640000000000006e-02
 8.765000000000006e-02
 8.890000000000006e-02
 8.940000000000006e-02
 8.990000000000006e-02
 9.040000000000006e-02
 9.090000000000006e-02
 9.140000000000006e-02
 9.190000000000006e-02
 9.240000000000007e-02
 9.290000000000007e-02
 9.340000000000007e-02
 9.390000000000007e-02
 9.440000000000007e-02
 9.490000000000007e-02
 9.540000000000007e-02
 9.590000000000007e-02
 9.640000000000007e-02
 9.690000000000007e-02
 9.740000000000006e-02
 9.790000000000006e-02
 9.840000000000006e-02
 9.890000000000006e-02
 9.940000000000006e-02
 9.990000000000006e-02
 1.004000000000001e-01
 1.009000000000001e-01
 1.014000000000001e-01
 1.019000000000001e-01
 1.024000000000001e-01
 1.029000000000001e-01
 1.034000000000001e-01
 1.039000000000001e-01
 1.044000000000001e-01
 1.049000000000001e-01
 1.054000000000001e-01
 1.059000000000001e-01
 1.064000000000001e-01
 1.069000000000001e-01
 1.074000000000001e-01
 1.079000000000001e-01
 1.084000000000001e-01
 1.089000000000001e-01
 1.101500000000001e-01
 1.114000000000001e-01
 1.126500000000001e-01
 1.139000000000001e-01
 1.151500000000001e-01
 1.164000000000001e-01
 1.176500000000001e-01
 1.189000000000001e-01
 1.201500000000001e-01
 1.214000000000001e-01
 1.226500000000001e-01
 1.239000000000001e-01
 1.251500000000001e-01
 1.264000000000001e-01
 1.276500000000001e-01
 1.289000000000001e-01
 1.301500000000001e-01
 1.314000000000001e-01
 1.326500000000001e-01
 1.339000000000001e-01
 1.351500000000001e-01
 1.364000000000000e-01
 1.376500000000001e-01
 1.389000000000001e-01
 1.401500000000001e-01
 1.414000000000001e-01
 1.426500000000001e-01
 1.439000000000001e-01
 1.451500000000001e-01
 1.464000000000001e-01
 1.476500000000001e-01
 1.489000000000001e-01
 1.501500000000001e-01
 1.514000000000001e-01

  }

  Locations (187) {
eeeiiiiiii
iiiiiifiii
iiiiiifiii
iifffiiiii
iiiifffiii
iifiiiiiii
iifiiiiiii
iiiiiifefe
fiiiiiiiii
iiiiiiiiii
iiiiiiiiii
iifiiiiifi
iiiifiiiii
iiiiiiiiii
fiiiiifiii
iifiiiiiii
iiiiiiiiii
iiiiiiiiii
iiiieee
  }

  Elements (188) {
 1 0 1
 1 1 2
 1 2 3
 1 3 4
 1 4 5
 1 5 6
 1 6 7
 1 7 8
 1 8 9
 1 9 10
 1 10 11
 1 11 12
 1 12 13
 1 13 14
 1 14 15
 1 15 16
 1 16 17
 1 17 18
 1 18 19
 1 19 20
 1 20 21
 1 21 22
 1 22 23
 1 23 24
 1 24 25
 1 25 26
 1 26 27
 1 27 28
 1 28 29
 1 29 30
 1 30 31
 1 31 32
 1 32 33
 1 33 34
 1 34 35
 1 35 36
 1 36 37
 1 37 38
 1 38 39
 1 39 40
 1 40 41
 1 41 42
 1 42 43
 1 43 44
 1 44 45
 1 45 46
 1 46 47
 1 47 48
 1 48 49
 1 49 50
 1 50 51
 1 51 52
 1 52 53
 1 53 54
 1 54 55
 1 55 56
 1 56 57
 1 57 58
 1 58 59
 1 59 60
 1 60 61
 1 61 62
 1 62 63
 1 63 64
 1 64 65
 1 65 66
 1 66 67
 1 67 68
 1 68 69
 1 69 70
 1 70 71
 1 71 72
 1 72 73
 1 73 74
 1 74 75
 1 75 76
 1 76 77
 1 77 78
 1 78 79
 1 79 80
 1 80 81
 1 81 82
 1 82 83
 1 83 84
 1 84 85
 1 85 86
 1 86 87
 1 87 88
 1 88 89
 1 89 90
 1 90 91
 1 91 92
 1 92 93
 1 93 94
 1 94 95
 1 95 96
 1 96 97
 1 97 98
 1 98 99
 1 99 100
 1 100 101
 1 101 102
 1 102 103
 1 103 104
 1 104 105
 1 105 106
 1 106 107
 1 107 108
 1 108 109
 1 109 110
 1 110 111
 1 111 112
 1 112 113
 1 113 114
 1 114 115
 1 115 116
 1 116 117
 1 117 118
 1 118 119
 1 119 120
 1 120 121
 1 121 122
 1 122 123
 1 123 124
 1 124 125
 1 125 126
 1 126 127
 1 127 128
 1 128 129
 1 129 130
 1 130 131
 1 131 132
 1 132 133
 1 133 134
 1 134 135
 1 135 136
 1 136 137
 1 137 138
 1 138 139
 1 139 140
 1 140 141
 1 141 142
 1 142 143
 1 143 144
 1 144 145
 1 145 146
 1 146 147
 1 147 148
 1 148 149
 1 149 150
 1 150 151
 1 151 152
 1 152 153
 1 153 154
 1 154 155
 1 155 156
 1 156 157
 1 157 158
 1 158 159
 1 159 160
 1 160 161
 1 161 162
 1 162 163
 1 163 164
 1 164 165
 1 165 166
 1 166 167
 1 167 168
 1 168 169
 1 169 170
 1 170 171
 1 171 172
 1 172 173
 1 173 174
 1 174 175
 1 175 176
 1 176 177
 1 177 178
 1 178 179
 1 179 180
 1 180 181
 1 181 182
 1 182 183
 1 183 184
 1 184 185
 1 185 186
 0 2
 0 184

  }

  Region ("contact_0") {
    material = GaAs
    Elements (2) {
 0 1
    }
  }

  Region ("left_p") {
    material = GaAs
    Elements (14) {
 2 3 4 5 6 7 8 9 10 11
 12 13 14 15
    }
  }

  Region ("left_i") {
    material = GaAs
    Elements (10) {
 16 17 18 19 20 21 22 23 24 25

    }
  }

  Region ("barrier1") {
    material = GaAs
    Elements (6) {
 26 27 28 29 30 31
    }
  }

  Region ("iface1a") {
    material = GaAs
    Elements (1) {
 32
    }
  }

  Region ("iface1b") {
    material = InGaAs
    Elements (1) {
 33
    }
  }

  Region ("mid_bound") {
    material = InGaAs
    Elements (10) {
 34 35 36 37 38 39 40 41 42 43

    }
  }

  Region ("iface2b") {
    material = InGaAs
    Elements (1) {
 44
    }
  }

  Region ("iface2a") {
    material = GaAs
    Elements (1) {
 45
    }
  }

  Region ("barrier2") {
    material = GaAs
    Elements (6) {
 46 47 48 49 50 51
    }
  }

  Region ("right_i") {
    material = GaAs
    Elements (10) {
 52 53 54 55 56 57 58 59 60 61

    }
  }

  Region ("right_n") {
    material = GaAs
    Elements (14) {
 62 63 64 65 66 67 68 69 70 71
 72 73 74 75
    }
  }

  Region ("contact_1") {
    material = GaAs
    Elements (2) {
 76 77
    }
  }

  Region ("contact_0") {
    material = GaAs
    Elements (2) {
 78 79
    }
  }

  Region ("left_n") {
    material = GaAs
    Elements (32) {
 80 81 82 83 84 85 86 87 88 89
 90 91 92 93 94 95 96 97 98 99
 100 101 102 103 104 105 106 107 108 109
 110 111
    }
  }

  Region ("left_n2") {
    material = GaAs
    Elements (6) {
 112 113 114 115 116 117
    }
  }

  Region ("barrier1") {
    material = AlGaAs
    Elements (6) {
 118 119 120 121 122 123
    }
  }

  Region ("mid_bound") {
    material = GaAs
    Elements (16) {
 124 125 126 127 128 129 130 131 132 133
 134 135 136 137 138 139
    }
  }

  Region ("barrier2") {
    material = AlGaAs
    Elements (6) {
 140 141 142 143 144 145
    }
  }

  Region ("right_n2") {
    material = GaAs
    Elements (6) {
 146 147 148 149 150 151
    }
  }

  Region ("right_n") {
    material = GaAs
    Elements (32) {
 152 153 154 155 156 157 158 159 160 161
 162 163 164 165 166 167 168 169 170 171
 172 173 174 175 176 177 178 179 180 181
 182 183
    }
  }

  Region ("contact_1") {
    material = GaAs
    Elements (2) {
 184 185
    }
  }

  Region ("Source") {
    material = Contact
    Elements (1) {
 186
    }
  }

  Region ("Drain") {
    material = Contact
    Elements (1) {
 187
    }
  }

}
