DF-ISE text

Info {
  version = 1.0
  type    = grid
  dimension   = 1
  nb_vertices = 451
  nb_edges    = 0
  nb_faces    = 0
  nb_elements = 452
  nb_regions  = 11
  regions     = [ "PML_mx" "left_n" "left_i" "barrier1" "mid_bound" "barrier2" "right_i" "right_n" "PML_px" "Source" "Drain" ]
  materials   = [ GaAs GaAs GaAs AlGaAs GaAs AlGaAs GaAs GaAs GaAs Contact Contact ]
}

Data {

  CoordSystem {
    translate = [  0.000000000000000e+00 0.000000000000000e+00 0.000000000000000e+00 ]
    transform = [  1.000000000000000e+00 0.000000000000000e+00 0.000000000000000e+00
 0.000000000000000e+00 1.000000000000000e+00 0.000000000000000e+00
 0.000000000000000e+00 0.000000000000000e+00 1.000000000000000e+00
 ]
  }

  Vertices (451) {
 -1.500000000000000e-02
 -1.480000000000000e-02
 -1.460000000000000e-02
 -1.440000000000000e-02
 -1.420000000000000e-02
 -1.400000000000000e-02
 -1.380000000000000e-02
 -1.360000000000000e-02
 -1.340000000000001e-02
 -1.320000000000001e-02
 -1.300000000000001e-02
 -1.280000000000001e-02
 -1.260000000000001e-02
 -1.240000000000001e-02
 -1.220000000000001e-02
 -1.200000000000001e-02
 -1.180000000000001e-02
 -1.160000000000001e-02
 -1.140000000000001e-02
 -1.120000000000001e-02
 -1.100000000000001e-02
 -1.080000000000001e-02
 -1.060000000000002e-02
 -1.040000000000002e-02
 -1.020000000000002e-02
 -1.000000000000002e-02
 -9.800000000000019e-03
 -9.600000000000020e-03
 -9.400000000000019e-03
 -9.200000000000021e-03
 -9.000000000000022e-03
 -8.800000000000021e-03
 -8.600000000000023e-03
 -8.400000000000024e-03
 -8.200000000000025e-03
 -8.000000000000024e-03
 -7.800000000000025e-03
 -7.600000000000024e-03
 -7.400000000000025e-03
 -7.200000000000024e-03
 -7.000000000000024e-03
 -6.800000000000024e-03
 -6.600000000000023e-03
 -6.400000000000024e-03
 -6.200000000000023e-03
 -6.000000000000023e-03
 -5.800000000000023e-03
 -5.600000000000022e-03
 -5.400000000000023e-03
 -5.200000000000022e-03
 -5.000000000000022e-03
 -4.800000000000022e-03
 -4.600000000000022e-03
 -4.400000000000022e-03
 -4.200000000000021e-03
 -4.000000000000021e-03
 -3.800000000000021e-03
 -3.600000000000021e-03
 -3.400000000000021e-03
 -3.200000000000021e-03
 -3.000000000000020e-03
 -2.800000000000020e-03
 -2.600000000000020e-03
 -2.400000000000020e-03
 -2.200000000000020e-03
 -2.000000000000020e-03
 -1.800000000000020e-03
 -1.600000000000020e-03
 -1.400000000000020e-03
 -1.200000000000020e-03
 -1.000000000000020e-03
 -8.000000000000198e-04
 -6.000000000000199e-04
 -4.000000000000199e-04
 -2.000000000000198e-04
 -1.981748098955904e-17
 1.999999999999802e-04
 3.999999999999802e-04
 5.999999999999802e-04
 7.999999999999803e-04
 9.999999999999803e-04
 1.199999999999980e-03
 1.399999999999980e-03
 1.599999999999980e-03
 1.799999999999980e-03
 1.999999999999980e-03
 2.199999999999980e-03
 2.399999999999980e-03
 2.599999999999980e-03
 2.799999999999981e-03
 2.999999999999981e-03
 3.199999999999981e-03
 3.399999999999981e-03
 3.599999999999981e-03
 3.799999999999982e-03
 3.999999999999982e-03
 4.199999999999982e-03
 4.399999999999982e-03
 4.599999999999982e-03
 4.799999999999982e-03
 4.999999999999982e-03
 5.199999999999982e-03
 5.399999999999983e-03
 5.599999999999983e-03
 5.799999999999983e-03
 5.999999999999983e-03
 6.199999999999983e-03
 6.399999999999984e-03
 6.599999999999983e-03
 6.799999999999984e-03
 6.999999999999984e-03
 7.199999999999984e-03
 7.399999999999985e-03
 7.599999999999984e-03
 7.799999999999985e-03
 7.999999999999985e-03
 8.199999999999985e-03
 8.399999999999984e-03
 8.599999999999984e-03
 8.799999999999983e-03
 8.999999999999982e-03
 9.199999999999981e-03
 9.399999999999981e-03
 9.599999999999980e-03
 9.799999999999979e-03
 9.999999999999979e-03
 1.019999999999998e-02
 1.039999999999998e-02
 1.059999999999998e-02
 1.079999999999998e-02
 1.099999999999998e-02
 1.119999999999997e-02
 1.139999999999997e-02
 1.159999999999997e-02
 1.179999999999997e-02
 1.199999999999997e-02
 1.219999999999997e-02
 1.239999999999997e-02
 1.259999999999997e-02
 1.279999999999997e-02
 1.299999999999997e-02
 1.319999999999997e-02
 1.339999999999997e-02
 1.359999999999997e-02
 1.379999999999997e-02
 1.399999999999996e-02
 1.419999999999996e-02
 1.439999999999996e-02
 1.459999999999996e-02
 1.479999999999996e-02
 1.499999999999996e-02
 1.519999999999996e-02
 1.539999999999996e-02
 1.559999999999996e-02
 1.579999999999996e-02
 1.599999999999996e-02
 1.619999999999996e-02
 1.639999999999996e-02
 1.659999999999996e-02
 1.679999999999995e-02
 1.699999999999995e-02
 1.719999999999995e-02
 1.739999999999995e-02
 1.759999999999995e-02
 1.779999999999995e-02
 1.799999999999995e-02
 1.819999999999995e-02
 1.839999999999995e-02
 1.859999999999995e-02
 1.879999999999995e-02
 1.899999999999995e-02
 1.919999999999995e-02
 1.939999999999995e-02
 1.959999999999994e-02
 1.979999999999994e-02
 1.999999999999994e-02
 2.019999999999994e-02
 2.039999999999994e-02
 2.059999999999994e-02
 2.079999999999994e-02
 2.099999999999994e-02
 2.119999999999994e-02
 2.139999999999994e-02
 2.159999999999994e-02
 2.179999999999994e-02
 2.199999999999994e-02
 2.219999999999994e-02
 2.239999999999993e-02
 2.259999999999993e-02
 2.279999999999993e-02
 2.299999999999993e-02
 2.319999999999993e-02
 2.339999999999993e-02
 2.359999999999993e-02
 2.379999999999993e-02
 2.399999999999993e-02
 2.419999999999993e-02
 2.439999999999993e-02
 2.459999999999993e-02
 2.479999999999993e-02
 2.499999999999993e-02
 2.519999999999992e-02
 2.539999999999992e-02
 2.559999999999992e-02
 2.579999999999992e-02
 2.599999999999992e-02
 2.619999999999992e-02
 2.639999999999992e-02
 2.659999999999992e-02
 2.679999999999992e-02
 2.699999999999992e-02
 2.719999999999992e-02
 2.739999999999992e-02
 2.759999999999992e-02
 2.779999999999992e-02
 2.799999999999991e-02
 2.819999999999991e-02
 2.839999999999991e-02
 2.859999999999991e-02
 2.879999999999991e-02
 2.899999999999991e-02
 2.919999999999991e-02
 2.939999999999991e-02
 2.959999999999991e-02
 2.979999999999991e-02
 2.999999999999991e-02
 3.019999999999991e-02
 3.039999999999991e-02
 3.059999999999991e-02
 3.079999999999990e-02
 3.099999999999990e-02
 3.119999999999990e-02
 3.139999999999990e-02
 3.159999999999990e-02
 3.179999999999990e-02
 3.199999999999990e-02
 3.219999999999990e-02
 3.239999999999991e-02
 3.259999999999991e-02
 3.279999999999991e-02
 3.299999999999991e-02
 3.319999999999992e-02
 3.339999999999992e-02
 3.359999999999992e-02
 3.379999999999993e-02
 3.399999999999993e-02
 3.419999999999993e-02
 3.439999999999994e-02
 3.459999999999994e-02
 3.479999999999994e-02
 3.499999999999994e-02
 3.519999999999995e-02
 3.539999999999995e-02
 3.559999999999995e-02
 3.579999999999996e-02
 3.599999999999996e-02
 3.619999999999996e-02
 3.639999999999996e-02
 3.659999999999997e-02
 3.679999999999997e-02
 3.699999999999997e-02
 3.719999999999998e-02
 3.739999999999997e-02
 3.759999999999998e-02
 3.779999999999999e-02
 3.799999999999999e-02
 3.819999999999999e-02
 3.839999999999999e-02
 3.860000000000000e-02
 3.879999999999999e-02
 3.900000000000000e-02
 3.920000000000001e-02
 3.940000000000000e-02
 3.960000000000001e-02
 3.980000000000001e-02
 4.000000000000001e-02
 4.020000000000002e-02
 4.040000000000002e-02
 4.060000000000002e-02
 4.080000000000002e-02
 4.100000000000003e-02
 4.120000000000003e-02
 4.140000000000003e-02
 4.160000000000004e-02
 4.180000000000004e-02
 4.200000000000004e-02
 4.220000000000004e-02
 4.240000000000005e-02
 4.260000000000005e-02
 4.280000000000005e-02
 4.300000000000006e-02
 4.320000000000006e-02
 4.340000000000006e-02
 4.360000000000006e-02
 4.380000000000007e-02
 4.400000000000007e-02
 4.420000000000007e-02
 4.440000000000008e-02
 4.460000000000008e-02
 4.480000000000008e-02
 4.500000000000009e-02
 4.520000000000009e-02
 4.540000000000009e-02
 4.560000000000009e-02
 4.580000000000010e-02
 4.600000000000010e-02
 4.620000000000010e-02
 4.640000000000011e-02
 4.660000000000011e-02
 4.680000000000011e-02
 4.700000000000011e-02
 4.720000000000012e-02
 4.740000000000012e-02
 4.760000000000012e-02
 4.780000000000013e-02
 4.800000000000013e-02
 4.820000000000013e-02
 4.840000000000013e-02
 4.860000000000014e-02
 4.880000000000014e-02
 4.900000000000014e-02
 4.920000000000015e-02
 4.940000000000015e-02
 4.960000000000015e-02
 4.980000000000016e-02
 5.000000000000016e-02
 5.020000000000016e-02
 5.040000000000016e-02
 5.060000000000017e-02
 5.080000000000016e-02
 5.100000000000017e-02
 5.120000000000018e-02
 5.140000000000017e-02
 5.160000000000018e-02
 5.180000000000018e-02
 5.200000000000018e-02
 5.220000000000019e-02
 5.240000000000019e-02
 5.260000000000020e-02
 5.280000000000019e-02
 5.300000000000020e-02
 5.320000000000020e-02
 5.340000000000020e-02
 5.360000000000021e-02
 5.380000000000021e-02
 5.400000000000021e-02
 5.420000000000021e-02
 5.440000000000022e-02
 5.460000000000022e-02
 5.480000000000022e-02
 5.500000000000023e-02
 5.520000000000023e-02
 5.540000000000023e-02
 5.560000000000023e-02
 5.580000000000024e-02
 5.600000000000024e-02
 5.620000000000024e-02
 5.640000000000025e-02
 5.660000000000025e-02
 5.680000000000025e-02
 5.700000000000026e-02
 5.720000000000026e-02
 5.740000000000026e-02
 5.760000000000026e-02
 5.780000000000027e-02
 5.800000000000027e-02
 5.820000000000027e-02
 5.840000000000028e-02
 5.860000000000028e-02
 5.880000000000028e-02
 5.900000000000028e-02
 5.920000000000029e-02
 5.940000000000029e-02
 5.960000000000029e-02
 5.980000000000030e-02
 6.000000000000030e-02
 6.020000000000030e-02
 6.040000000000030e-02
 6.060000000000031e-02
 6.080000000000031e-02
 6.100000000000031e-02
 6.120000000000032e-02
 6.140000000000032e-02
 6.160000000000032e-02
 6.180000000000033e-02
 6.200000000000033e-02
 6.220000000000033e-02
 6.240000000000033e-02
 6.260000000000034e-02
 6.280000000000034e-02
 6.300000000000035e-02
 6.320000000000034e-02
 6.340000000000034e-02
 6.360000000000035e-02
 6.380000000000036e-02
 6.400000000000036e-02
 6.420000000000035e-02
 6.440000000000036e-02
 6.460000000000037e-02
 6.480000000000037e-02
 6.500000000000036e-02
 6.520000000000037e-02
 6.540000000000037e-02
 6.560000000000038e-02
 6.580000000000039e-02
 6.600000000000038e-02
 6.620000000000038e-02
 6.640000000000039e-02
 6.660000000000039e-02
 6.680000000000040e-02
 6.700000000000039e-02
 6.720000000000040e-02
 6.740000000000040e-02
 6.760000000000041e-02
 6.780000000000042e-02
 6.800000000000041e-02
 6.820000000000041e-02
 6.840000000000042e-02
 6.860000000000042e-02
 6.880000000000043e-02
 6.900000000000042e-02
 6.920000000000043e-02
 6.940000000000043e-02
 6.960000000000044e-02
 6.980000000000043e-02
 7.000000000000044e-02
 7.020000000000044e-02
 7.040000000000045e-02
 7.060000000000045e-02
 7.080000000000045e-02
 7.100000000000045e-02
 7.120000000000046e-02
 7.140000000000046e-02
 7.160000000000047e-02
 7.180000000000046e-02
 7.200000000000047e-02
 7.220000000000047e-02
 7.240000000000048e-02
 7.260000000000048e-02
 7.280000000000048e-02
 7.300000000000048e-02
 7.320000000000049e-02
 7.340000000000049e-02
 7.360000000000050e-02
 7.380000000000049e-02
 7.400000000000050e-02
 7.420000000000050e-02
 7.440000000000051e-02
 7.460000000000050e-02
 7.480000000000050e-02
 7.500000000000051e-02

  }

  Locations (451) {
iiiiiiiiii
iiiiiiiiii
iiiiiiiiii
iiiiiiiiii
iiiiiiiiii
iiiiiiiiii
iiiiiiiiii
iiiiieiiii
iiiiiiiiii
iiiiiiiiii
iiiiiiiiii
iiiiiiiiii
iiiiiiiiii
iiiiiiiiii
iiiiiiiiii
iiiiiiiiii
iiiiiiiiii
iiiiiiiiii
iiiiifiiii
iiiiiiiiii
fiiiiiiiii
iiiiifiiii
iiiiiiiiii
iiiiifiiii
iiiiiiiiii
fiiiiiiiii
iiiiifiiii
iiiiiiiiii
iiiiiiiiii
iiiiiiiiii
iiiiiiiiii
iiiiiiiiii
iiiiiiiiii
iiiiiiiiii
iiiiiiiiii
iiiiiiiiii
iiiiiiiiii
iiiiieiiii
iiiiiiiiii
iiiiiiiiii
iiiiiiiiii
iiiiiiiiii
iiiiiiiiii
iiiiiiiiii
iiiiiiiiii
i
  }

  Elements (452) {
 1 0 1
 1 1 2
 1 2 3
 1 3 4
 1 4 5
 1 5 6
 1 6 7
 1 7 8
 1 8 9
 1 9 10
 1 10 11
 1 11 12
 1 12 13
 1 13 14
 1 14 15
 1 15 16
 1 16 17
 1 17 18
 1 18 19
 1 19 20
 1 20 21
 1 21 22
 1 22 23
 1 23 24
 1 24 25
 1 25 26
 1 26 27
 1 27 28
 1 28 29
 1 29 30
 1 30 31
 1 31 32
 1 32 33
 1 33 34
 1 34 35
 1 35 36
 1 36 37
 1 37 38
 1 38 39
 1 39 40
 1 40 41
 1 41 42
 1 42 43
 1 43 44
 1 44 45
 1 45 46
 1 46 47
 1 47 48
 1 48 49
 1 49 50
 1 50 51
 1 51 52
 1 52 53
 1 53 54
 1 54 55
 1 55 56
 1 56 57
 1 57 58
 1 58 59
 1 59 60
 1 60 61
 1 61 62
 1 62 63
 1 63 64
 1 64 65
 1 65 66
 1 66 67
 1 67 68
 1 68 69
 1 69 70
 1 70 71
 1 71 72
 1 72 73
 1 73 74
 1 74 75
 1 75 76
 1 76 77
 1 77 78
 1 78 79
 1 79 80
 1 80 81
 1 81 82
 1 82 83
 1 83 84
 1 84 85
 1 85 86
 1 86 87
 1 87 88
 1 88 89
 1 89 90
 1 90 91
 1 91 92
 1 92 93
 1 93 94
 1 94 95
 1 95 96
 1 96 97
 1 97 98
 1 98 99
 1 99 100
 1 100 101
 1 101 102
 1 102 103
 1 103 104
 1 104 105
 1 105 106
 1 106 107
 1 107 108
 1 108 109
 1 109 110
 1 110 111
 1 111 112
 1 112 113
 1 113 114
 1 114 115
 1 115 116
 1 116 117
 1 117 118
 1 118 119
 1 119 120
 1 120 121
 1 121 122
 1 122 123
 1 123 124
 1 124 125
 1 125 126
 1 126 127
 1 127 128
 1 128 129
 1 129 130
 1 130 131
 1 131 132
 1 132 133
 1 133 134
 1 134 135
 1 135 136
 1 136 137
 1 137 138
 1 138 139
 1 139 140
 1 140 141
 1 141 142
 1 142 143
 1 143 144
 1 144 145
 1 145 146
 1 146 147
 1 147 148
 1 148 149
 1 149 150
 1 150 151
 1 151 152
 1 152 153
 1 153 154
 1 154 155
 1 155 156
 1 156 157
 1 157 158
 1 158 159
 1 159 160
 1 160 161
 1 161 162
 1 162 163
 1 163 164
 1 164 165
 1 165 166
 1 166 167
 1 167 168
 1 168 169
 1 169 170
 1 170 171
 1 171 172
 1 172 173
 1 173 174
 1 174 175
 1 175 176
 1 176 177
 1 177 178
 1 178 179
 1 179 180
 1 180 181
 1 181 182
 1 182 183
 1 183 184
 1 184 185
 1 185 186
 1 186 187
 1 187 188
 1 188 189
 1 189 190
 1 190 191
 1 191 192
 1 192 193
 1 193 194
 1 194 195
 1 195 196
 1 196 197
 1 197 198
 1 198 199
 1 199 200
 1 200 201
 1 201 202
 1 202 203
 1 203 204
 1 204 205
 1 205 206
 1 206 207
 1 207 208
 1 208 209
 1 209 210
 1 210 211
 1 211 212
 1 212 213
 1 213 214
 1 214 215
 1 215 216
 1 216 217
 1 217 218
 1 218 219
 1 219 220
 1 220 221
 1 221 222
 1 222 223
 1 223 224
 1 224 225
 1 225 226
 1 226 227
 1 227 228
 1 228 229
 1 229 230
 1 230 231
 1 231 232
 1 232 233
 1 233 234
 1 234 235
 1 235 236
 1 236 237
 1 237 238
 1 238 239
 1 239 240
 1 240 241
 1 241 242
 1 242 243
 1 243 244
 1 244 245
 1 245 246
 1 246 247
 1 247 248
 1 248 249
 1 249 250
 1 250 251
 1 251 252
 1 252 253
 1 253 254
 1 254 255
 1 255 256
 1 256 257
 1 257 258
 1 258 259
 1 259 260
 1 260 261
 1 261 262
 1 262 263
 1 263 264
 1 264 265
 1 265 266
 1 266 267
 1 267 268
 1 268 269
 1 269 270
 1 270 271
 1 271 272
 1 272 273
 1 273 274
 1 274 275
 1 275 276
 1 276 277
 1 277 278
 1 278 279
 1 279 280
 1 280 281
 1 281 282
 1 282 283
 1 283 284
 1 284 285
 1 285 286
 1 286 287
 1 287 288
 1 288 289
 1 289 290
 1 290 291
 1 291 292
 1 292 293
 1 293 294
 1 294 295
 1 295 296
 1 296 297
 1 297 298
 1 298 299
 1 299 300
 1 300 301
 1 301 302
 1 302 303
 1 303 304
 1 304 305
 1 305 306
 1 306 307
 1 307 308
 1 308 309
 1 309 310
 1 310 311
 1 311 312
 1 312 313
 1 313 314
 1 314 315
 1 315 316
 1 316 317
 1 317 318
 1 318 319
 1 319 320
 1 320 321
 1 321 322
 1 322 323
 1 323 324
 1 324 325
 1 325 326
 1 326 327
 1 327 328
 1 328 329
 1 329 330
 1 330 331
 1 331 332
 1 332 333
 1 333 334
 1 334 335
 1 335 336
 1 336 337
 1 337 338
 1 338 339
 1 339 340
 1 340 341
 1 341 342
 1 342 343
 1 343 344
 1 344 345
 1 345 346
 1 346 347
 1 347 348
 1 348 349
 1 349 350
 1 350 351
 1 351 352
 1 352 353
 1 353 354
 1 354 355
 1 355 356
 1 356 357
 1 357 358
 1 358 359
 1 359 360
 1 360 361
 1 361 362
 1 362 363
 1 363 364
 1 364 365
 1 365 366
 1 366 367
 1 367 368
 1 368 369
 1 369 370
 1 370 371
 1 371 372
 1 372 373
 1 373 374
 1 374 375
 1 375 376
 1 376 377
 1 377 378
 1 378 379
 1 379 380
 1 380 381
 1 381 382
 1 382 383
 1 383 384
 1 384 385
 1 385 386
 1 386 387
 1 387 388
 1 388 389
 1 389 390
 1 390 391
 1 391 392
 1 392 393
 1 393 394
 1 394 395
 1 395 396
 1 396 397
 1 397 398
 1 398 399
 1 399 400
 1 400 401
 1 401 402
 1 402 403
 1 403 404
 1 404 405
 1 405 406
 1 406 407
 1 407 408
 1 408 409
 1 409 410
 1 410 411
 1 411 412
 1 412 413
 1 413 414
 1 414 415
 1 415 416
 1 416 417
 1 417 418
 1 418 419
 1 419 420
 1 420 421
 1 421 422
 1 422 423
 1 423 424
 1 424 425
 1 425 426
 1 426 427
 1 427 428
 1 428 429
 1 429 430
 1 430 431
 1 431 432
 1 432 433
 1 433 434
 1 434 435
 1 435 436
 1 436 437
 1 437 438
 1 438 439
 1 439 440
 1 440 441
 1 441 442
 1 442 443
 1 443 444
 1 444 445
 1 445 446
 1 446 447
 1 447 448
 1 448 449
 1 449 450
 0 75
 0 375

  }

  Region ("PML_mx") {
    material = GaAs
    Elements (75) {
 0 1 2 3 4 5 6 7 8 9
 10 11 12 13 14 15 16 17 18 19
 20 21 22 23 24 25 26 27 28 29
 30 31 32 33 34 35 36 37 38 39
 40 41 42 43 44 45 46 47 48 49
 50 51 52 53 54 55 56 57 58 59
 60 61 62 63 64 65 66 67 68 69
 70 71 72 73 74
    }
  }

  Region ("left_n") {
    material = GaAs
    Elements (110) {
 75 76 77 78 79 80 81 82 83 84
 85 86 87 88 89 90 91 92 93 94
 95 96 97 98 99 100 101 102 103 104
 105 106 107 108 109 110 111 112 113 114
 115 116 117 118 119 120 121 122 123 124
 125 126 127 128 129 130 131 132 133 134
 135 136 137 138 139 140 141 142 143 144
 145 146 147 148 149 150 151 152 153 154
 155 156 157 158 159 160 161 162 163 164
 165 166 167 168 169 170 171 172 173 174
 175 176 177 178 179 180 181 182 183 184

    }
  }

  Region ("left_i") {
    material = GaAs
    Elements (15) {
 185 186 187 188 189 190 191 192 193 194
 195 196 197 198 199
    }
  }

  Region ("barrier1") {
    material = AlGaAs
    Elements (15) {
 200 201 202 203 204 205 206 207 208 209
 210 211 212 213 214
    }
  }

  Region ("mid_bound") {
    material = GaAs
    Elements (20) {
 215 216 217 218 219 220 221 222 223 224
 225 226 227 228 229 230 231 232 233 234

    }
  }

  Region ("barrier2") {
    material = AlGaAs
    Elements (15) {
 235 236 237 238 239 240 241 242 243 244
 245 246 247 248 249
    }
  }

  Region ("right_i") {
    material = GaAs
    Elements (15) {
 250 251 252 253 254 255 256 257 258 259
 260 261 262 263 264
    }
  }

  Region ("right_n") {
    material = GaAs
    Elements (110) {
 265 266 267 268 269 270 271 272 273 274
 275 276 277 278 279 280 281 282 283 284
 285 286 287 288 289 290 291 292 293 294
 295 296 297 298 299 300 301 302 303 304
 305 306 307 308 309 310 311 312 313 314
 315 316 317 318 319 320 321 322 323 324
 325 326 327 328 329 330 331 332 333 334
 335 336 337 338 339 340 341 342 343 344
 345 346 347 348 349 350 351 352 353 354
 355 356 357 358 359 360 361 362 363 364
 365 366 367 368 369 370 371 372 373 374

    }
  }

  Region ("PML_px") {
    material = GaAs
    Elements (75) {
 375 376 377 378 379 380 381 382 383 384
 385 386 387 388 389 390 391 392 393 394
 395 396 397 398 399 400 401 402 403 404
 405 406 407 408 409 410 411 412 413 414
 415 416 417 418 419 420 421 422 423 424
 425 426 427 428 429 430 431 432 433 434
 435 436 437 438 439 440 441 442 443 444
 445 446 447 448 449
    }
  }

  Region ("Source") {
    material = Contact
    Elements (1) {
 450
    }
  }

  Region ("Drain") {
    material = Contact
    Elements (1) {
 451
    }
  }

}
