DF-ISE text

Info {
  version = 1.0
  type    = dataset
  dimension   = 1
  nb_vertices = 119
  nb_edges    = 0
  nb_faces    = 0
  nb_elements = 120
  nb_regions  = 7
  datasets    = [ "DopingConcentration" "PhosphorusActiveConcentration" "BoronActiveConcentration" "xMoleFraction" ]
  functions   = [ DopingConcentration PhosphorusActiveConcentration BoronActiveConcentration xMoleFraction ]
}

Data {

  Dataset ("DopingConcentration") {
    function  = DopingConcentration
    type      = scalar
    dimension = 1
    location  = vertex
    validity  = [ "contact_0" "left_nn" "mid_n" "right_nn" "contact_1" "Source" "Drain" ]
    Values (119) {
 5.000000000000000e+25 5.000000000000000e+25 5.000000000000000e+25 5.000000000000000e+25 5.000000000000000e+25 5.000000000000000e+25 5.000000000000000e+25 5.000000000000000e+25 5.000000000000000e+25 5.000000000000000e+25
 5.000000000000000e+25 5.000000000000000e+25 5.000000000000000e+25 5.000000000000000e+25 5.000000000000000e+25 5.000000000000000e+25 5.000000000000000e+25 5.000000000000000e+25 5.000000000000000e+25 5.000000000000000e+25
 5.000000000000000e+25 5.000000000000000e+25 5.000000000000000e+25 5.000000000000000e+25 5.000000000000000e+25 5.000000000000000e+25 5.000000000000000e+25 1.000000000000000e+24 1.000000000000000e+24 1.000000000000000e+24
 1.000000000000000e+24 1.000000000000000e+24 1.000000000000000e+24 1.000000000000000e+24 1.000000000000000e+24 1.000000000000000e+24 1.000000000000000e+24 1.000000000000000e+24 1.000000000000000e+24 1.000000000000000e+24
 1.000000000000000e+24 1.000000000000000e+24 1.000000000000000e+24 1.000000000000000e+24 1.000000000000000e+24 1.000000000000000e+24 1.000000000000000e+24 1.000000000000000e+24 1.000000000000000e+24 1.000000000000000e+24
 1.000000000000000e+24 1.000000000000000e+24 1.000000000000000e+24 1.000000000000000e+24 1.000000000000000e+24 1.000000000000000e+24 1.000000000000000e+24 1.000000000000000e+24 1.000000000000000e+24 1.000000000000000e+24
 1.000000000000000e+24 1.000000000000000e+24 1.000000000000000e+24 1.000000000000000e+24 1.000000000000000e+24 1.000000000000000e+24 1.000000000000000e+24 1.000000000000000e+24 1.000000000000000e+24 1.000000000000000e+24
 1.000000000000000e+24 1.000000000000000e+24 1.000000000000000e+24 1.000000000000000e+24 1.000000000000000e+24 1.000000000000000e+24 1.000000000000000e+24 1.000000000000000e+24 1.000000000000000e+24 1.000000000000000e+24
 1.000000000000000e+24 1.000000000000000e+24 1.000000000000000e+24 1.000000000000000e+24 1.000000000000000e+24 1.000000000000000e+24 1.000000000000000e+24 1.000000000000000e+24 1.000000000000000e+24 1.000000000000000e+24
 1.000000000000000e+24 1.000000000000000e+24 1.000000000000000e+24 5.000000000000000e+25 5.000000000000000e+25 5.000000000000000e+25 5.000000000000000e+25 5.000000000000000e+25 5.000000000000000e+25 5.000000000000000e+25
 5.000000000000000e+25 5.000000000000000e+25 5.000000000000000e+25 5.000000000000000e+25 5.000000000000000e+25 5.000000000000000e+25 5.000000000000000e+25 5.000000000000000e+25 5.000000000000000e+25 5.000000000000000e+25
 5.000000000000000e+25 5.000000000000000e+25 5.000000000000000e+25 5.000000000000000e+25 5.000000000000000e+25 5.000000000000000e+25 5.000000000000000e+25 5.000000000000000e+25 5.000000000000000e+25
    }
  }

  Dataset ("PhosphorusActiveConcentration") {
    function  = PhosphorusActiveConcentration
    type      = scalar
    dimension = 1
    location  = vertex
    validity  = [ "contact_0" "left_nn" "mid_n" "right_nn" "contact_1" "Source" "Drain" ]
    Values (119) {
 5.000000000000000e+25 5.000000000000000e+25 5.000000000000000e+25 5.000000000000000e+25 5.000000000000000e+25 5.000000000000000e+25 5.000000000000000e+25 5.000000000000000e+25 5.000000000000000e+25 5.000000000000000e+25
 5.000000000000000e+25 5.000000000000000e+25 5.000000000000000e+25 5.000000000000000e+25 5.000000000000000e+25 5.000000000000000e+25 5.000000000000000e+25 5.000000000000000e+25 5.000000000000000e+25 5.000000000000000e+25
 5.000000000000000e+25 5.000000000000000e+25 5.000000000000000e+25 5.000000000000000e+25 5.000000000000000e+25 5.000000000000000e+25 5.000000000000000e+25 1.000000000000000e+24 1.000000000000000e+24 1.000000000000000e+24
 1.000000000000000e+24 1.000000000000000e+24 1.000000000000000e+24 1.000000000000000e+24 1.000000000000000e+24 1.000000000000000e+24 1.000000000000000e+24 1.000000000000000e+24 1.000000000000000e+24 1.000000000000000e+24
 1.000000000000000e+24 1.000000000000000e+24 1.000000000000000e+24 1.000000000000000e+24 1.000000000000000e+24 1.000000000000000e+24 1.000000000000000e+24 1.000000000000000e+24 1.000000000000000e+24 1.000000000000000e+24
 1.000000000000000e+24 1.000000000000000e+24 1.000000000000000e+24 1.000000000000000e+24 1.000000000000000e+24 1.000000000000000e+24 1.000000000000000e+24 1.000000000000000e+24 1.000000000000000e+24 1.000000000000000e+24
 1.000000000000000e+24 1.000000000000000e+24 1.000000000000000e+24 1.000000000000000e+24 1.000000000000000e+24 1.000000000000000e+24 1.000000000000000e+24 1.000000000000000e+24 1.000000000000000e+24 1.000000000000000e+24
 1.000000000000000e+24 1.000000000000000e+24 1.000000000000000e+24 1.000000000000000e+24 1.000000000000000e+24 1.000000000000000e+24 1.000000000000000e+24 1.000000000000000e+24 1.000000000000000e+24 1.000000000000000e+24
 1.000000000000000e+24 1.000000000000000e+24 1.000000000000000e+24 1.000000000000000e+24 1.000000000000000e+24 1.000000000000000e+24 1.000000000000000e+24 1.000000000000000e+24 1.000000000000000e+24 1.000000000000000e+24
 1.000000000000000e+24 1.000000000000000e+24 1.000000000000000e+24 5.000000000000000e+25 5.000000000000000e+25 5.000000000000000e+25 5.000000000000000e+25 5.000000000000000e+25 5.000000000000000e+25 5.000000000000000e+25
 5.000000000000000e+25 5.000000000000000e+25 5.000000000000000e+25 5.000000000000000e+25 5.000000000000000e+25 5.000000000000000e+25 5.000000000000000e+25 5.000000000000000e+25 5.000000000000000e+25 5.000000000000000e+25
 5.000000000000000e+25 5.000000000000000e+25 5.000000000000000e+25 5.000000000000000e+25 5.000000000000000e+25 5.000000000000000e+25 5.000000000000000e+25 5.000000000000000e+25 5.000000000000000e+25
    }
  }

  Dataset ("BoronActiveConcentration") {
    function  = BoronActiveConcentration
    type      = scalar
    dimension = 1
    location  = vertex
    validity  = [ "contact_0" "left_nn" "mid_n" "right_nn" "contact_1" "Source" "Drain" ]
    Values (119) {
 0.000000000000000e+00 0.000000000000000e+00 0.000000000000000e+00 0.000000000000000e+00 0.000000000000000e+00 0.000000000000000e+00 0.000000000000000e+00 0.000000000000000e+00 0.000000000000000e+00 0.000000000000000e+00
 0.000000000000000e+00 0.000000000000000e+00 0.000000000000000e+00 0.000000000000000e+00 0.000000000000000e+00 0.000000000000000e+00 0.000000000000000e+00 0.000000000000000e+00 0.000000000000000e+00 0.000000000000000e+00
 0.000000000000000e+00 0.000000000000000e+00 0.000000000000000e+00 0.000000000000000e+00 0.000000000000000e+00 0.000000000000000e+00 0.000000000000000e+00 0.000000000000000e+00 0.000000000000000e+00 0.000000000000000e+00
 0.000000000000000e+00 0.000000000000000e+00 0.000000000000000e+00 0.000000000000000e+00 0.000000000000000e+00 0.000000000000000e+00 0.000000000000000e+00 0.000000000000000e+00 0.000000000000000e+00 0.000000000000000e+00
 0.000000000000000e+00 0.000000000000000e+00 0.000000000000000e+00 0.000000000000000e+00 0.000000000000000e+00 0.000000000000000e+00 0.000000000000000e+00 0.000000000000000e+00 0.000000000000000e+00 0.000000000000000e+00
 0.000000000000000e+00 0.000000000000000e+00 0.000000000000000e+00 0.000000000000000e+00 0.000000000000000e+00 0.000000000000000e+00 0.000000000000000e+00 0.000000000000000e+00 0.000000000000000e+00 0.000000000000000e+00
 0.000000000000000e+00 0.000000000000000e+00 0.000000000000000e+00 0.000000000000000e+00 0.000000000000000e+00 0.000000000000000e+00 0.000000000000000e+00 0.000000000000000e+00 0.000000000000000e+00 0.000000000000000e+00
 0.000000000000000e+00 0.000000000000000e+00 0.000000000000000e+00 0.000000000000000e+00 0.000000000000000e+00 0.000000000000000e+00 0.000000000000000e+00 0.000000000000000e+00 0.000000000000000e+00 0.000000000000000e+00
 0.000000000000000e+00 0.000000000000000e+00 0.000000000000000e+00 0.000000000000000e+00 0.000000000000000e+00 0.000000000000000e+00 0.000000000000000e+00 0.000000000000000e+00 0.000000000000000e+00 0.000000000000000e+00
 0.000000000000000e+00 0.000000000000000e+00 0.000000000000000e+00 0.000000000000000e+00 0.000000000000000e+00 0.000000000000000e+00 0.000000000000000e+00 0.000000000000000e+00 0.000000000000000e+00 0.000000000000000e+00
 0.000000000000000e+00 0.000000000000000e+00 0.000000000000000e+00 0.000000000000000e+00 0.000000000000000e+00 0.000000000000000e+00 0.000000000000000e+00 0.000000000000000e+00 0.000000000000000e+00 0.000000000000000e+00
 0.000000000000000e+00 0.000000000000000e+00 0.000000000000000e+00 0.000000000000000e+00 0.000000000000000e+00 0.000000000000000e+00 0.000000000000000e+00 0.000000000000000e+00 0.000000000000000e+00
    }
  }

  Dataset ("xMoleFraction") {
    function  = xMoleFraction
    type      = scalar
    dimension = 1
    location  = vertex
    validity  = [ "contact_0" "left_nn" "mid_n" "right_nn" "contact_1" "Source" "Drain" ]
    Values (119) {
 0.000000000000000e+00 0.000000000000000e+00 0.000000000000000e+00 0.000000000000000e+00 0.000000000000000e+00 0.000000000000000e+00 0.000000000000000e+00 0.000000000000000e+00 0.000000000000000e+00 0.000000000000000e+00
 0.000000000000000e+00 0.000000000000000e+00 0.000000000000000e+00 0.000000000000000e+00 0.000000000000000e+00 0.000000000000000e+00 0.000000000000000e+00 0.000000000000000e+00 0.000000000000000e+00 0.000000000000000e+00
 0.000000000000000e+00 0.000000000000000e+00 0.000000000000000e+00 0.000000000000000e+00 0.000000000000000e+00 0.000000000000000e+00 0.000000000000000e+00 0.000000000000000e+00 0.000000000000000e+00 0.000000000000000e+00
 0.000000000000000e+00 0.000000000000000e+00 0.000000000000000e+00 0.000000000000000e+00 0.000000000000000e+00 0.000000000000000e+00 0.000000000000000e+00 0.000000000000000e+00 0.000000000000000e+00 0.000000000000000e+00
 0.000000000000000e+00 0.000000000000000e+00 0.000000000000000e+00 0.000000000000000e+00 0.000000000000000e+00 0.000000000000000e+00 0.000000000000000e+00 0.000000000000000e+00 0.000000000000000e+00 0.000000000000000e+00
 0.000000000000000e+00 0.000000000000000e+00 0.000000000000000e+00 0.000000000000000e+00 0.000000000000000e+00 0.000000000000000e+00 0.000000000000000e+00 0.000000000000000e+00 0.000000000000000e+00 0.000000000000000e+00
 0.000000000000000e+00 0.000000000000000e+00 0.000000000000000e+00 0.000000000000000e+00 0.000000000000000e+00 0.000000000000000e+00 0.000000000000000e+00 0.000000000000000e+00 0.000000000000000e+00 0.000000000000000e+00
 0.000000000000000e+00 0.000000000000000e+00 0.000000000000000e+00 0.000000000000000e+00 0.000000000000000e+00 0.000000000000000e+00 0.000000000000000e+00 0.000000000000000e+00 0.000000000000000e+00 0.000000000000000e+00
 0.000000000000000e+00 0.000000000000000e+00 0.000000000000000e+00 0.000000000000000e+00 0.000000000000000e+00 0.000000000000000e+00 0.000000000000000e+00 0.000000000000000e+00 0.000000000000000e+00 0.000000000000000e+00
 0.000000000000000e+00 0.000000000000000e+00 0.000000000000000e+00 0.000000000000000e+00 0.000000000000000e+00 0.000000000000000e+00 0.000000000000000e+00 0.000000000000000e+00 0.000000000000000e+00 0.000000000000000e+00
 0.000000000000000e+00 0.000000000000000e+00 0.000000000000000e+00 0.000000000000000e+00 0.000000000000000e+00 0.000000000000000e+00 0.000000000000000e+00 0.000000000000000e+00 0.000000000000000e+00 0.000000000000000e+00
 0.000000000000000e+00 0.000000000000000e+00 0.000000000000000e+00 0.000000000000000e+00 0.000000000000000e+00 0.000000000000000e+00 0.000000000000000e+00 0.000000000000000e+00 0.000000000000000e+00
    }
  }

}
