DF-ISE text

# filename: n3_msh.grd
# written by the library Delaunay
Info {
version     =  1.1
type        = grid
dimension   =  1
nb_vertices =  69
nb_edges    =  0
nb_faces    =  0
nb_elements =  70
nb_regions  =  5
regions     = [ "contact_0" "device" "contact_1" "Source" "Drain" ]
materials     = [ Silicon Silicon Silicon Contact Contact ]
 }
Data {
CoordSystem {
translate = [  0  0  0 ]
transform = [  1  0  0  0  1  0  0  0  1 ]
 }
Vertices (  69) {
 -0.0009375
 -0.00046875
 0
 0.00046875
 0.0009375
 0.00140625
 0.001875
 0.00234375
 0.0028125
 0.00328125
 0.00375
 0.00421875
 0.0046875
 0.00515625
 0.005625
 0.00609375
 0.0065625
 0.00703125
 0.0075
 0.00796875
 0.0084375
 0.00890625
 0.009375
 0.00984375
 0.0103125
 0.01078125
 0.01125
 0.01171875
 0.0121875
 0.01265625
 0.013125
 0.01359375
 0.0140625
 0.01453125
 0.015
 0.01546875
 0.0159375
 0.01640625
 0.016875
 0.01734375
 0.0178125
 0.01828125
 0.01875
 0.01921875
 0.0196875
 0.02015625
 0.020625
 0.02109375
 0.0215625
 0.02203125
 0.0225
 0.02296875
 0.0234375
 0.02390625
 0.024375
 0.02484375
 0.0253125
 0.02578125
 0.02625
 0.02671875
 0.0271875
 0.02765625
 0.028125
 0.02859375
 0.0290625
 0.02953125
 0.03
 0.03046875
 0.0309375
 }
Locations (  69) {
e i f i i i i i i i i i i i i i i i i i i i i i i i i i i i
i i i i i i i i i i i i i i i i i i i i i i i i i i i i i i
i i i i i i f i e }
Elements (  70) {
 1 0 1
 1 1 2
 0 2
 1 2 3
 1 3 4
 1 4 5
 1 5 6
 1 6 7
 1 7 8
 1 8 9
 1 9 10
 1 10 11
 1 11 12
 1 12 13
 1 13 14
 1 14 15
 1 15 16
 1 16 17
 1 17 18
 1 18 19
 1 19 20
 1 20 21
 1 21 22
 1 22 23
 1 23 24
 1 24 25
 1 25 26
 1 26 27
 1 27 28
 1 28 29
 1 29 30
 1 30 31
 1 31 32
 1 32 33
 1 33 34
 1 34 35
 1 35 36
 1 36 37
 1 37 38
 1 38 39
 1 39 40
 1 40 41
 1 41 42
 1 42 43
 1 43 44
 1 44 45
 1 45 46
 1 46 47
 1 47 48
 1 48 49
 1 49 50
 1 50 51
 1 51 52
 1 52 53
 1 53 54
 1 54 55
 1 55 56
 1 56 57
 1 57 58
 1 58 59
 1 59 60
 1 60 61
 1 61 62
 1 62 63
 1 63 64
 1 64 65
 1 65 66
 0 66
 1 66 67
 1 67 68
 }
Region ("contact_0") {
material =Silicon
Elements ( 2) {
 0 1}
}
Region ("device") {
material =Silicon
Elements ( 64) {
 3 4 5 6 7 8 9 10 11 12 13 14 15 16 17 18 19 20 21 22
 23 24 25 26 27 28 29 30 31 32 33 34 35 36 37 38 39 40 41 42
 43 44 45 46 47 48 49 50 51 52 53 54 55 56 57 58 59 60 61 62
 63 64 65 66}
}
Region ("contact_1") {
material =Silicon
Elements ( 2) {
 68 69}
}
Region ("Source") {
material =Contact
Elements ( 1) {
 2}
}
Region ("Drain") {
material =Contact
Elements ( 1) {
 67}
}
}
