DF-ISE text

Info {
  version = 1.0
  type    = dataset
  dimension   = 1
  nb_vertices = 115
  nb_edges    = 0
  nb_faces    = 0
  nb_elements = 114
  nb_regions  = 116
  datasets    = [ "DopingConcentration" "PhosphorusActiveConcentration" "BoronActiveConcentration" "xMoleFraction" ]
  functions   = [ DopingConcentration PhosphorusActiveConcentration BoronActiveConcentration xMoleFraction ]
}

Data {

  Dataset ("DopingConcentration") {
    function  = DopingConcentration
    type      = scalar
    dimension = 1
    location  = vertex
    validity  = [ "contact_0" "left_nn" "mid_n" "right_nn" "contact_1" "Source" "Drain" ]
    Values (115) {
 3.000000000000000e+25 3.000000000000000e+25 3.000000000000000e+25 3.000000000000000e+25 3.000000000000000e+25 3.000000000000000e+25 3.000000000000000e+25 3.000000000000000e+25 3.000000000000000e+25 3.000000000000000e+25
 3.000000000000000e+25 3.000000000000000e+25 3.000000000000000e+25 3.000000000000000e+25 3.000000000000000e+25 3.000000000000000e+25 3.000000000000000e+25 3.000000000000000e+25 3.000000000000000e+25 3.000000000000000e+25
 3.000000000000000e+25 3.000000000000000e+25 3.000000000000000e+25 9.999999999999999e+22 9.999999999999999e+22 9.999999999999999e+22 9.999999999999999e+22 9.999999999999999e+22 9.999999999999999e+22 9.999999999999999e+22
 9.999999999999999e+22 9.999999999999999e+22 9.999999999999999e+22 9.999999999999999e+22 9.999999999999999e+22 9.999999999999999e+22 9.999999999999999e+22 9.999999999999999e+22 9.999999999999999e+22 9.999999999999999e+22
 9.999999999999999e+22 9.999999999999999e+22 9.999999999999999e+22 9.999999999999999e+22 9.999999999999999e+22 9.999999999999999e+22 9.999999999999999e+22 9.999999999999999e+22 9.999999999999999e+22 9.999999999999999e+22
 9.999999999999999e+22 9.999999999999999e+22 9.999999999999999e+22 9.999999999999999e+22 9.999999999999999e+22 9.999999999999999e+22 9.999999999999999e+22 9.999999999999999e+22 9.999999999999999e+22 9.999999999999999e+22
 9.999999999999999e+22 9.999999999999999e+22 9.999999999999999e+22 9.999999999999999e+22 9.999999999999999e+22 9.999999999999999e+22 9.999999999999999e+22 9.999999999999999e+22 9.999999999999999e+22 9.999999999999999e+22
 9.999999999999999e+22 9.999999999999999e+22 9.999999999999999e+22 9.999999999999999e+22 9.999999999999999e+22 9.999999999999999e+22 9.999999999999999e+22 9.999999999999999e+22 9.999999999999999e+22 9.999999999999999e+22
 9.999999999999999e+22 9.999999999999999e+22 9.999999999999999e+22 9.999999999999999e+22 9.999999999999999e+22 9.999999999999999e+22 9.999999999999999e+22 9.999999999999999e+22 9.999999999999999e+22 9.999999999999999e+22
 9.999999999999999e+22 9.999999999999999e+22 9.999999999999999e+22 3.000000000000000e+25 3.000000000000000e+25 3.000000000000000e+25 3.000000000000000e+25 3.000000000000000e+25 3.000000000000000e+25 3.000000000000000e+25
 3.000000000000000e+25 3.000000000000000e+25 3.000000000000000e+25 3.000000000000000e+25 3.000000000000000e+25 3.000000000000000e+25 3.000000000000000e+25 3.000000000000000e+25 3.000000000000000e+25 3.000000000000000e+25
 3.000000000000000e+25 3.000000000000000e+25 3.000000000000000e+25 3.000000000000000e+25 3.000000000000000e+25
    }
  }

  Dataset ("PhosphorusActiveConcentration") {
    function  = PhosphorusActiveConcentration
    type      = scalar
    dimension = 1
    location  = vertex
    validity  = [ "contact_0" "left_nn" "mid_n" "right_nn" "contact_1" "Source" "Drain" ]
    Values (115) {
 3.000000000000000e+25 3.000000000000000e+25 3.000000000000000e+25 3.000000000000000e+25 3.000000000000000e+25 3.000000000000000e+25 3.000000000000000e+25 3.000000000000000e+25 3.000000000000000e+25 3.000000000000000e+25
 3.000000000000000e+25 3.000000000000000e+25 3.000000000000000e+25 3.000000000000000e+25 3.000000000000000e+25 3.000000000000000e+25 3.000000000000000e+25 3.000000000000000e+25 3.000000000000000e+25 3.000000000000000e+25
 3.000000000000000e+25 3.000000000000000e+25 3.000000000000000e+25 9.999999999999999e+22 9.999999999999999e+22 9.999999999999999e+22 9.999999999999999e+22 9.999999999999999e+22 9.999999999999999e+22 9.999999999999999e+22
 9.999999999999999e+22 9.999999999999999e+22 9.999999999999999e+22 9.999999999999999e+22 9.999999999999999e+22 9.999999999999999e+22 9.999999999999999e+22 9.999999999999999e+22 9.999999999999999e+22 9.999999999999999e+22
 9.999999999999999e+22 9.999999999999999e+22 9.999999999999999e+22 9.999999999999999e+22 9.999999999999999e+22 9.999999999999999e+22 9.999999999999999e+22 9.999999999999999e+22 9.999999999999999e+22 9.999999999999999e+22
 9.999999999999999e+22 9.999999999999999e+22 9.999999999999999e+22 9.999999999999999e+22 9.999999999999999e+22 9.999999999999999e+22 9.999999999999999e+22 9.999999999999999e+22 9.999999999999999e+22 9.999999999999999e+22
 9.999999999999999e+22 9.999999999999999e+22 9.999999999999999e+22 9.999999999999999e+22 9.999999999999999e+22 9.999999999999999e+22 9.999999999999999e+22 9.999999999999999e+22 9.999999999999999e+22 9.999999999999999e+22
 9.999999999999999e+22 9.999999999999999e+22 9.999999999999999e+22 9.999999999999999e+22 9.999999999999999e+22 9.999999999999999e+22 9.999999999999999e+22 9.999999999999999e+22 9.999999999999999e+22 9.999999999999999e+22
 9.999999999999999e+22 9.999999999999999e+22 9.999999999999999e+22 9.999999999999999e+22 9.999999999999999e+22 9.999999999999999e+22 9.999999999999999e+22 9.999999999999999e+22 9.999999999999999e+22 9.999999999999999e+22
 9.999999999999999e+22 9.999999999999999e+22 9.999999999999999e+22 3.000000000000000e+25 3.000000000000000e+25 3.000000000000000e+25 3.000000000000000e+25 3.000000000000000e+25 3.000000000000000e+25 3.000000000000000e+25
 3.000000000000000e+25 3.000000000000000e+25 3.000000000000000e+25 3.000000000000000e+25 3.000000000000000e+25 3.000000000000000e+25 3.000000000000000e+25 3.000000000000000e+25 3.000000000000000e+25 3.000000000000000e+25
 3.000000000000000e+25 3.000000000000000e+25 3.000000000000000e+25 3.000000000000000e+25 3.000000000000000e+25
    }
  }

  Dataset ("BoronActiveConcentration") {
    function  = BoronActiveConcentration
    type      = scalar
    dimension = 1
    location  = vertex
    validity  = [ "contact_0" "left_nn" "mid_n" "right_nn" "contact_1" "Source" "Drain" ]
    Values (115) {
 0.000000000000000e+00 0.000000000000000e+00 0.000000000000000e+00 0.000000000000000e+00 0.000000000000000e+00 0.000000000000000e+00 0.000000000000000e+00 0.000000000000000e+00 0.000000000000000e+00 0.000000000000000e+00
 0.000000000000000e+00 0.000000000000000e+00 0.000000000000000e+00 0.000000000000000e+00 0.000000000000000e+00 0.000000000000000e+00 0.000000000000000e+00 0.000000000000000e+00 0.000000000000000e+00 0.000000000000000e+00
 0.000000000000000e+00 0.000000000000000e+00 0.000000000000000e+00 0.000000000000000e+00 0.000000000000000e+00 0.000000000000000e+00 0.000000000000000e+00 0.000000000000000e+00 0.000000000000000e+00 0.000000000000000e+00
 0.000000000000000e+00 0.000000000000000e+00 0.000000000000000e+00 0.000000000000000e+00 0.000000000000000e+00 0.000000000000000e+00 0.000000000000000e+00 0.000000000000000e+00 0.000000000000000e+00 0.000000000000000e+00
 0.000000000000000e+00 0.000000000000000e+00 0.000000000000000e+00 0.000000000000000e+00 0.000000000000000e+00 0.000000000000000e+00 0.000000000000000e+00 0.000000000000000e+00 0.000000000000000e+00 0.000000000000000e+00
 0.000000000000000e+00 0.000000000000000e+00 0.000000000000000e+00 0.000000000000000e+00 0.000000000000000e+00 0.000000000000000e+00 0.000000000000000e+00 0.000000000000000e+00 0.000000000000000e+00 0.000000000000000e+00
 0.000000000000000e+00 0.000000000000000e+00 0.000000000000000e+00 0.000000000000000e+00 0.000000000000000e+00 0.000000000000000e+00 0.000000000000000e+00 0.000000000000000e+00 0.000000000000000e+00 0.000000000000000e+00
 0.000000000000000e+00 0.000000000000000e+00 0.000000000000000e+00 0.000000000000000e+00 0.000000000000000e+00 0.000000000000000e+00 0.000000000000000e+00 0.000000000000000e+00 0.000000000000000e+00 0.000000000000000e+00
 0.000000000000000e+00 0.000000000000000e+00 0.000000000000000e+00 0.000000000000000e+00 0.000000000000000e+00 0.000000000000000e+00 0.000000000000000e+00 0.000000000000000e+00 0.000000000000000e+00 0.000000000000000e+00
 0.000000000000000e+00 0.000000000000000e+00 0.000000000000000e+00 0.000000000000000e+00 0.000000000000000e+00 0.000000000000000e+00 0.000000000000000e+00 0.000000000000000e+00 0.000000000000000e+00 0.000000000000000e+00
 0.000000000000000e+00 0.000000000000000e+00 0.000000000000000e+00 0.000000000000000e+00 0.000000000000000e+00 0.000000000000000e+00 0.000000000000000e+00 0.000000000000000e+00 0.000000000000000e+00 0.000000000000000e+00
 0.000000000000000e+00 0.000000000000000e+00 0.000000000000000e+00 0.000000000000000e+00 0.000000000000000e+00
    }
  }

  Dataset ("xMoleFraction") {
    function  = xMoleFraction
    type      = scalar
    dimension = 1
    location  = vertex
    validity  = [ "contact_0" "left_nn" "mid_n" "right_nn" "contact_1" "Source" "Drain" ]
    Values (115) {
 0.000000000000000e+00 0.000000000000000e+00 0.000000000000000e+00 0.000000000000000e+00 0.000000000000000e+00 0.000000000000000e+00 0.000000000000000e+00 0.000000000000000e+00 0.000000000000000e+00 0.000000000000000e+00
 0.000000000000000e+00 0.000000000000000e+00 0.000000000000000e+00 0.000000000000000e+00 0.000000000000000e+00 0.000000000000000e+00 0.000000000000000e+00 0.000000000000000e+00 0.000000000000000e+00 0.000000000000000e+00
 0.000000000000000e+00 0.000000000000000e+00 0.000000000000000e+00 0.000000000000000e+00 0.000000000000000e+00 0.000000000000000e+00 0.000000000000000e+00 0.000000000000000e+00 0.000000000000000e+00 0.000000000000000e+00
 0.000000000000000e+00 0.000000000000000e+00 0.000000000000000e+00 0.000000000000000e+00 0.000000000000000e+00 0.000000000000000e+00 0.000000000000000e+00 0.000000000000000e+00 0.000000000000000e+00 0.000000000000000e+00
 0.000000000000000e+00 0.000000000000000e+00 0.000000000000000e+00 0.000000000000000e+00 0.000000000000000e+00 0.000000000000000e+00 0.000000000000000e+00 0.000000000000000e+00 0.000000000000000e+00 0.000000000000000e+00
 0.000000000000000e+00 0.000000000000000e+00 0.000000000000000e+00 0.000000000000000e+00 0.000000000000000e+00 0.000000000000000e+00 0.000000000000000e+00 0.000000000000000e+00 0.000000000000000e+00 0.000000000000000e+00
 0.000000000000000e+00 0.000000000000000e+00 0.000000000000000e+00 0.000000000000000e+00 0.000000000000000e+00 0.000000000000000e+00 0.000000000000000e+00 0.000000000000000e+00 0.000000000000000e+00 0.000000000000000e+00
 0.000000000000000e+00 0.000000000000000e+00 0.000000000000000e+00 0.000000000000000e+00 0.000000000000000e+00 0.000000000000000e+00 0.000000000000000e+00 0.000000000000000e+00 0.000000000000000e+00 0.000000000000000e+00
 0.000000000000000e+00 0.000000000000000e+00 0.000000000000000e+00 0.000000000000000e+00 0.000000000000000e+00 0.000000000000000e+00 0.000000000000000e+00 0.000000000000000e+00 0.000000000000000e+00 0.000000000000000e+00
 0.000000000000000e+00 0.000000000000000e+00 0.000000000000000e+00 0.000000000000000e+00 0.000000000000000e+00 0.000000000000000e+00 0.000000000000000e+00 0.000000000000000e+00 0.000000000000000e+00 0.000000000000000e+00
 0.000000000000000e+00 0.000000000000000e+00 0.000000000000000e+00 0.000000000000000e+00 0.000000000000000e+00 0.000000000000000e+00 0.000000000000000e+00 0.000000000000000e+00 0.000000000000000e+00 0.000000000000000e+00
 0.000000000000000e+00 0.000000000000000e+00 0.000000000000000e+00 0.000000000000000e+00 0.000000000000000e+00
    }
  }

}
