DF-ISE text

Info {
  version = 1.0
  type    = grid
  dimension   = 1
  nb_vertices = 110
  nb_edges    = 0
  nb_faces    = 0
  nb_elements = 111
  nb_regions  = 7
  regions     = [ "contact_0" "left_nn" "mid_n" "right_nn" "contact_1" "Source" "Drain" ]
  materials   = [ GaAs GaAs GaAs GaAs GaAs Contact Contact ]
}

Data {

  CoordSystem {
    translate = [  0.000000000000000e+00 0.000000000000000e+00 0.000000000000000e+00 ]
    transform = [  1.000000000000000e+00 0.000000000000000e+00 0.000000000000000e+00
 0.000000000000000e+00 1.000000000000000e+00 0.000000000000000e+00
 0.000000000000000e+00 0.000000000000000e+00 1.000000000000000e+00
 ]
  }

  Vertices (110) {
 -1.600000000000000e-03
 -8.000000000000000e-04
 0.000000000000000e+00
 8.000000000000000e-04
 1.600000000000000e-03
 2.400000000000000e-03
 3.200000000000000e-03
 4.000000000000000e-03
 4.800000000000000e-03
 5.600000000000000e-03
 6.399999999999999e-03
 7.199999999999999e-03
 7.999999999999998e-03
 8.799999999999999e-03
 9.599999999999999e-03
 1.040000000000000e-02
 1.120000000000000e-02
 1.200000000000000e-02
 1.280000000000000e-02
 1.360000000000000e-02
 1.440000000000000e-02
 1.520000000000001e-02
 1.600000000000000e-02
 1.680000000000001e-02
 1.760000000000000e-02
 1.840000000000001e-02
 1.920000000000001e-02
 2.000000000000001e-02
 2.080000000000001e-02
 2.160000000000001e-02
 2.240000000000001e-02
 2.320000000000001e-02
 2.400000000000001e-02
 2.480000000000001e-02
 2.560000000000001e-02
 2.640000000000001e-02
 2.720000000000001e-02
 2.800000000000001e-02
 2.880000000000002e-02
 2.960000000000002e-02
 3.040000000000002e-02
 3.120000000000002e-02
 3.200000000000001e-02
 3.280000000000001e-02
 3.360000000000001e-02
 3.440000000000001e-02
 3.520000000000000e-02
 3.600000000000000e-02
 3.680000000000000e-02
 3.759999999999999e-02
 3.839999999999999e-02
 3.919999999999999e-02
 3.999999999999999e-02
 4.079999999999998e-02
 4.159999999999998e-02
 4.239999999999998e-02
 4.319999999999997e-02
 4.399999999999997e-02
 4.479999999999997e-02
 4.559999999999997e-02
 4.639999999999996e-02
 4.719999999999996e-02
 4.799999999999996e-02
 4.879999999999995e-02
 4.959999999999995e-02
 5.039999999999995e-02
 5.119999999999995e-02
 5.199999999999994e-02
 5.279999999999994e-02
 5.359999999999994e-02
 5.439999999999993e-02
 5.519999999999993e-02
 5.599999999999993e-02
 5.679999999999993e-02
 5.759999999999992e-02
 5.839999999999992e-02
 5.919999999999992e-02
 5.999999999999991e-02
 6.079999999999991e-02
 6.159999999999991e-02
 6.239999999999991e-02
 6.319999999999991e-02
 6.399999999999990e-02
 6.479999999999990e-02
 6.559999999999989e-02
 6.639999999999989e-02
 6.719999999999988e-02
 6.799999999999988e-02
 6.879999999999989e-02
 6.959999999999988e-02
 7.039999999999988e-02
 7.119999999999987e-02
 7.199999999999987e-02
 7.279999999999986e-02
 7.359999999999986e-02
 7.439999999999987e-02
 7.519999999999986e-02
 7.599999999999986e-02
 7.679999999999985e-02
 7.759999999999985e-02
 7.839999999999984e-02
 7.919999999999984e-02
 7.999999999999985e-02
 8.079999999999984e-02
 8.159999999999984e-02
 8.239999999999983e-02
 8.319999999999983e-02
 8.399999999999982e-02
 8.479999999999982e-02
 8.559999999999983e-02

  }

  Locations (110) {
eeeiiiiiii
iiiiiiifii
iiiiiiiiii
iiiiiiiiii
iiiiiiiiii
iiiiiiiiii
iiiiiiiiii
iiiiiiiiii
iiiiiiiiii
iifiiiiiii
iiiiiiieee

  }

  Elements (111) {
 1 0 1
 1 1 2
 1 2 3
 1 3 4
 1 4 5
 1 5 6
 1 6 7
 1 7 8
 1 8 9
 1 9 10
 1 10 11
 1 11 12
 1 12 13
 1 13 14
 1 14 15
 1 15 16
 1 16 17
 1 17 18
 1 18 19
 1 19 20
 1 20 21
 1 21 22
 1 22 23
 1 23 24
 1 24 25
 1 25 26
 1 26 27
 1 27 28
 1 28 29
 1 29 30
 1 30 31
 1 31 32
 1 32 33
 1 33 34
 1 34 35
 1 35 36
 1 36 37
 1 37 38
 1 38 39
 1 39 40
 1 40 41
 1 41 42
 1 42 43
 1 43 44
 1 44 45
 1 45 46
 1 46 47
 1 47 48
 1 48 49
 1 49 50
 1 50 51
 1 51 52
 1 52 53
 1 53 54
 1 54 55
 1 55 56
 1 56 57
 1 57 58
 1 58 59
 1 59 60
 1 60 61
 1 61 62
 1 62 63
 1 63 64
 1 64 65
 1 65 66
 1 66 67
 1 67 68
 1 68 69
 1 69 70
 1 70 71
 1 71 72
 1 72 73
 1 73 74
 1 74 75
 1 75 76
 1 76 77
 1 77 78
 1 78 79
 1 79 80
 1 80 81
 1 81 82
 1 82 83
 1 83 84
 1 84 85
 1 85 86
 1 86 87
 1 87 88
 1 88 89
 1 89 90
 1 90 91
 1 91 92
 1 92 93
 1 93 94
 1 94 95
 1 95 96
 1 96 97
 1 97 98
 1 98 99
 1 99 100
 1 100 101
 1 101 102
 1 102 103
 1 103 104
 1 104 105
 1 105 106
 1 106 107
 1 107 108
 1 108 109
 0 2
 0 107

  }

  Region ("contact_0") {
    material = GaAs
    Elements (2) {
 0 1
    }
  }

  Region ("left_nn") {
    material = GaAs
    Elements (15) {
 2 3 4 5 6 7 8 9 10 11
 12 13 14 15 16
    }
  }

  Region ("mid_n") {
    material = GaAs
    Elements (75) {
 17 18 19 20 21 22 23 24 25 26
 27 28 29 30 31 32 33 34 35 36
 37 38 39 40 41 42 43 44 45 46
 47 48 49 50 51 52 53 54 55 56
 57 58 59 60 61 62 63 64 65 66
 67 68 69 70 71 72 73 74 75 76
 77 78 79 80 81 82 83 84 85 86
 87 88 89 90 91
    }
  }

  Region ("right_nn") {
    material = GaAs
    Elements (15) {
 92 93 94 95 96 97 98 99 100 101
 102 103 104 105 106
    }
  }

  Region ("contact_1") {
    material = GaAs
    Elements (2) {
 107 108
    }
  }

  Region ("Source") {
    material = Contact
    Elements (1) {
 109
    }
  }

  Region ("Drain") {
    material = Contact
    Elements (1) {
 110
    }
  }

}
