DF-ISE text

Info {
  version = 1.0
  type    = grid
  dimension   = 1
  nb_vertices = 119
  nb_edges    = 0
  nb_faces    = 0
  nb_elements = 120
  nb_regions  = 7
  regions     = [ "contact_0" "left_nn" "mid_n" "right_nn" "contact_1" "Source" "Drain" ]
  materials   = [ Silicon Silicon Silicon Silicon Silicon Contact Contact ]
}

Data {

  CoordSystem {
    translate = [  0.000000000000000e+00 0.000000000000000e+00 0.000000000000000e+00 ]
    transform = [  1.000000000000000e+00 0.000000000000000e+00 0.000000000000000e+00
 0.000000000000000e+00 1.000000000000000e+00 0.000000000000000e+00
 0.000000000000000e+00 0.000000000000000e+00 1.000000000000000e+00
 ]
  }

  Vertices (119) {
 -1.000000000000000e-03
 -5.000000000000000e-04
 0.000000000000000e+00
 5.000000000000000e-04
 1.000000000000000e-03
 1.500000000000000e-03
 2.000000000000000e-03
 2.500000000000000e-03
 3.000000000000000e-03
 3.500000000000000e-03
 4.000000000000000e-03
 4.500000000000000e-03
 5.000000000000000e-03
 5.500000000000000e-03
 6.000000000000000e-03
 6.500000000000000e-03
 7.000000000000000e-03
 7.500000000000000e-03
 8.000000000000000e-03
 8.500000000000001e-03
 8.999999999999999e-03
 9.500000000000000e-03
 1.000000000000000e-02
 1.050000000000000e-02
 1.100000000000000e-02
 1.150000000000000e-02
 1.200000000000000e-02
 1.250000000000000e-02
 1.300000000000000e-02
 1.350000000000000e-02
 1.400000000000000e-02
 1.450000000000000e-02
 1.500000000000000e-02
 1.550000000000000e-02
 1.600000000000000e-02
 1.650000000000000e-02
 1.700000000000000e-02
 1.750000000000000e-02
 1.800000000000000e-02
 1.850000000000000e-02
 1.900000000000000e-02
 1.950000000000000e-02
 2.000000000000000e-02
 2.050000000000000e-02
 2.100000000000000e-02
 2.150000000000000e-02
 2.200000000000000e-02
 2.250000000000000e-02
 2.300000000000000e-02
 2.350000000000000e-02
 2.400000000000000e-02
 2.450000000000000e-02
 2.500000000000000e-02
 2.550000000000000e-02
 2.600000000000000e-02
 2.650000000000000e-02
 2.700000000000000e-02
 2.750000000000000e-02
 2.800000000000000e-02
 2.850000000000000e-02
 2.900000000000000e-02
 2.950000000000000e-02
 3.000000000000000e-02
 3.050000000000000e-02
 3.100000000000000e-02
 3.150000000000000e-02
 3.200000000000000e-02
 3.250000000000000e-02
 3.300000000000000e-02
 3.350000000000000e-02
 3.400000000000000e-02
 3.450000000000000e-02
 3.500000000000000e-02
 3.550000000000000e-02
 3.600000000000000e-02
 3.650000000000000e-02
 3.700000000000000e-02
 3.750000000000000e-02
 3.800000000000000e-02
 3.850000000000000e-02
 3.900000000000000e-02
 3.950000000000000e-02
 4.000000000000000e-02
 4.050000000000000e-02
 4.100000000000000e-02
 4.150000000000000e-02
 4.200000000000000e-02
 4.250000000000000e-02
 4.300000000000000e-02
 4.350000000000000e-02
 4.400000000000000e-02
 4.450000000000000e-02
 4.500000000000000e-02
 4.550000000000000e-02
 4.600000000000000e-02
 4.650000000000000e-02
 4.700000000000000e-02
 4.750000000000000e-02
 4.800000000000000e-02
 4.850000000000000e-02
 4.900000000000000e-02
 4.950000000000000e-02
 5.000000000000000e-02
 5.050000000000000e-02
 5.100000000000000e-02
 5.150000000000000e-02
 5.200000000000000e-02
 5.250000000000000e-02
 5.300000000000000e-02
 5.350000000000000e-02
 5.400000000000000e-02
 5.450000000000000e-02
 5.500000000000000e-02
 5.550000000000000e-02
 5.600000000000000e-02
 5.650000000000000e-02
 5.700000000000000e-02
 5.750000000000000e-02
 5.800000000000000e-02

  }

  Locations (119) {
eeeiiiiiii
iiiiiiiiii
iiiiiifiii
iiiiiiiiii
iiiiiiiiii
iiiiiiiiii
iiiiiiiiii
iiiiiiiiii
iiiiiiiiii
iifiiiiiii
iiiiiiiiii
iiiiiieee
  }

  Elements (120) {
 1 0 1
 1 1 2
 1 2 3
 1 3 4
 1 4 5
 1 5 6
 1 6 7
 1 7 8
 1 8 9
 1 9 10
 1 10 11
 1 11 12
 1 12 13
 1 13 14
 1 14 15
 1 15 16
 1 16 17
 1 17 18
 1 18 19
 1 19 20
 1 20 21
 1 21 22
 1 22 23
 1 23 24
 1 24 25
 1 25 26
 1 26 27
 1 27 28
 1 28 29
 1 29 30
 1 30 31
 1 31 32
 1 32 33
 1 33 34
 1 34 35
 1 35 36
 1 36 37
 1 37 38
 1 38 39
 1 39 40
 1 40 41
 1 41 42
 1 42 43
 1 43 44
 1 44 45
 1 45 46
 1 46 47
 1 47 48
 1 48 49
 1 49 50
 1 50 51
 1 51 52
 1 52 53
 1 53 54
 1 54 55
 1 55 56
 1 56 57
 1 57 58
 1 58 59
 1 59 60
 1 60 61
 1 61 62
 1 62 63
 1 63 64
 1 64 65
 1 65 66
 1 66 67
 1 67 68
 1 68 69
 1 69 70
 1 70 71
 1 71 72
 1 72 73
 1 73 74
 1 74 75
 1 75 76
 1 76 77
 1 77 78
 1 78 79
 1 79 80
 1 80 81
 1 81 82
 1 82 83
 1 83 84
 1 84 85
 1 85 86
 1 86 87
 1 87 88
 1 88 89
 1 89 90
 1 90 91
 1 91 92
 1 92 93
 1 93 94
 1 94 95
 1 95 96
 1 96 97
 1 97 98
 1 98 99
 1 99 100
 1 100 101
 1 101 102
 1 102 103
 1 103 104
 1 104 105
 1 105 106
 1 106 107
 1 107 108
 1 108 109
 1 109 110
 1 110 111
 1 111 112
 1 112 113
 1 113 114
 1 114 115
 1 115 116
 1 116 117
 1 117 118
 0 2
 0 116

  }

  Region ("contact_0") {
    material = Silicon
    Elements (2) {
 0 1
    }
  }

  Region ("left_nn") {
    material = Silicon
    Elements (24) {
 2 3 4 5 6 7 8 9 10 11
 12 13 14 15 16 17 18 19 20 21
 22 23 24 25
    }
  }

  Region ("mid_n") {
    material = Silicon
    Elements (66) {
 26 27 28 29 30 31 32 33 34 35
 36 37 38 39 40 41 42 43 44 45
 46 47 48 49 50 51 52 53 54 55
 56 57 58 59 60 61 62 63 64 65
 66 67 68 69 70 71 72 73 74 75
 76 77 78 79 80 81 82 83 84 85
 86 87 88 89 90 91
    }
  }

  Region ("right_nn") {
    material = Silicon
    Elements (24) {
 92 93 94 95 96 97 98 99 100 101
 102 103 104 105 106 107 108 109 110 111
 112 113 114 115
    }
  }

  Region ("contact_1") {
    material = Silicon
    Elements (2) {
 116 117
    }
  }

  Region ("Source") {
    material = Contact
    Elements (1) {
 118
    }
  }

  Region ("Drain") {
    material = Contact
    Elements (1) {
 119
    }
  }

}
