DF-ISE text

Info {
  version = 1.0
  type    = grid
  dimension   = 1
  nb_vertices = 83
  nb_edges    = 0
  nb_faces    = 0
  nb_elements = 84
  nb_regions  = 15
  regions     = [ "contact_0" "left_p" "left_i" "barrier1" "iface1a" "iface1b" "mid_bound" "iface2b" "iface2a" "barrier2" "right_i" "right_n" "contact_1" "Source" "Drain" ]
  materials   = [ AlGaAs AlGaAs AlGaAs AlGaAs AlGaAs GaAs GaAs GaAs AlGaAs AlGaAs AlGaAs AlGaAs AlGaAs Contact Contact ]
}

Data {

  CoordSystem {
    translate = [  0.000000000000000e+00 0.000000000000000e+00 0.000000000000000e+00 ]
    transform = [  1.000000000000000e+00 0.000000000000000e+00 0.000000000000000e+00
 0.000000000000000e+00 1.000000000000000e+00 0.000000000000000e+00
 0.000000000000000e+00 0.000000000000000e+00 1.000000000000000e+00
 ]
  }

  Vertices (83) {
 -1.000000000000000e-03
 -5.000000000000000e-04
 0.000000000000000e+00
 5.000000000000000e-04
 1.000000000000000e-03
 1.500000000000000e-03
 2.000000000000000e-03
 2.500000000000000e-03
 3.000000000000000e-03
 3.500000000000000e-03
 4.000000000000000e-03
 4.500000000000000e-03
 5.000000000000000e-03
 5.500000000000000e-03
 6.000000000000000e-03
 6.500000000000000e-03
 7.000000000000000e-03
 7.500000000000000e-03
 8.000000000000000e-03
 8.500000000000001e-03
 8.999999999999999e-03
 9.500000000000000e-03
 1.000000000000000e-02
 1.050000000000000e-02
 1.100000000000000e-02
 1.150000000000000e-02
 1.200000000000000e-02
 1.250000000000000e-02
 1.300000000000000e-02
 1.350000000000000e-02
 1.400000000000000e-02
 1.450000000000000e-02
 1.500000000000000e-02
 1.550000000000000e-02
 1.600000000000000e-02
 1.650000000000000e-02
 1.700000000000000e-02
 1.750000000000000e-02
 1.800000000000000e-02
 1.810000000000000e-02
 1.820000000000000e-02
 1.830000000000000e-02
 1.840000000000001e-02
 1.890000000000001e-02
 1.940000000000000e-02
 1.990000000000000e-02
 2.040000000000000e-02
 2.090000000000001e-02
 2.140000000000001e-02
 2.190000000000001e-02
 2.240000000000001e-02
 2.290000000000001e-02
 2.340000000000000e-02
 2.390000000000000e-02
 2.440000000000001e-02
 2.490000000000001e-02
 2.540000000000001e-02
 2.590000000000001e-02
 2.640000000000001e-02
 2.650000000000001e-02
 2.660000000000001e-02
 2.670000000000001e-02
 2.680000000000001e-02
 2.780000000000001e-02
 2.880000000000001e-02
 2.980000000000001e-02
 3.080000000000001e-02
 3.180000000000001e-02
 3.280000000000001e-02
 3.380000000000001e-02
 3.480000000000001e-02
 3.580000000000001e-02
 3.680000000000001e-02
 3.780000000000001e-02
 3.880000000000001e-02
 3.980000000000001e-02
 4.080000000000001e-02
 4.180000000000001e-02
 4.280000000000001e-02
 4.380000000000001e-02
 4.480000000000001e-02
 4.580000000000001e-02
 4.680000000000001e-02

  }

  Locations (83) {
eeeiiiiiii
iiiiiiiiii
iifiiiiiii
iifiiiiifi
fifiiiiiii
iiiiiiiifi
fifiifiiii
fiiiiiiiii
eee
  }

  Elements (84) {
 1 0 1
 1 1 2
 1 2 3
 1 3 4
 1 4 5
 1 5 6
 1 6 7
 1 7 8
 1 8 9
 1 9 10
 1 10 11
 1 11 12
 1 12 13
 1 13 14
 1 14 15
 1 15 16
 1 16 17
 1 17 18
 1 18 19
 1 19 20
 1 20 21
 1 21 22
 1 22 23
 1 23 24
 1 24 25
 1 25 26
 1 26 27
 1 27 28
 1 28 29
 1 29 30
 1 30 31
 1 31 32
 1 32 33
 1 33 34
 1 34 35
 1 35 36
 1 36 37
 1 37 38
 1 38 39
 1 39 40
 1 40 41
 1 41 42
 1 42 43
 1 43 44
 1 44 45
 1 45 46
 1 46 47
 1 47 48
 1 48 49
 1 49 50
 1 50 51
 1 51 52
 1 52 53
 1 53 54
 1 54 55
 1 55 56
 1 56 57
 1 57 58
 1 58 59
 1 59 60
 1 60 61
 1 61 62
 1 62 63
 1 63 64
 1 64 65
 1 65 66
 1 66 67
 1 67 68
 1 68 69
 1 69 70
 1 70 71
 1 71 72
 1 72 73
 1 73 74
 1 74 75
 1 75 76
 1 76 77
 1 77 78
 1 78 79
 1 79 80
 1 80 81
 1 81 82
 0 2
 0 80

  }

  Region ("contact_0") {
    material = AlGaAs
    Elements (2) {
 0 1
    }
  }

  Region ("left_p") {
    material = AlGaAs
    Elements (20) {
 2 3 4 5 6 7 8 9 10 11
 12 13 14 15 16 17 18 19 20 21

    }
  }

  Region ("left_i") {
    material = AlGaAs
    Elements (10) {
 22 23 24 25 26 27 28 29 30 31

    }
  }

  Region ("barrier1") {
    material = AlGaAs
    Elements (6) {
 32 33 34 35 36 37
    }
  }

  Region ("iface1a") {
    material = AlGaAs
    Elements (2) {
 38 39
    }
  }

  Region ("iface1b") {
    material = GaAs
    Elements (2) {
 40 41
    }
  }

  Region ("mid_bound") {
    material = GaAs
    Elements (16) {
 42 43 44 45 46 47 48 49 50 51
 52 53 54 55 56 57
    }
  }

  Region ("iface2b") {
    material = GaAs
    Elements (2) {
 58 59
    }
  }

  Region ("iface2a") {
    material = AlGaAs
    Elements (2) {
 60 61
    }
  }

  Region ("barrier2") {
    material = AlGaAs
    Elements (3) {
 62 63 64
    }
  }

  Region ("right_i") {
    material = AlGaAs
    Elements (5) {
 65 66 67 68 69
    }
  }

  Region ("right_n") {
    material = AlGaAs
    Elements (10) {
 70 71 72 73 74 75 76 77 78 79

    }
  }

  Region ("contact_1") {
    material = AlGaAs
    Elements (2) {
 80 81
    }
  }

  Region ("Source") {
    material = Contact
    Elements (1) {
 82
    }
  }

  Region ("Drain") {
    material = Contact
    Elements (1) {
 83
    }
  }

}
