DF-ISE text

# filename: structures/nichia.grd
# written by the open source DF-ISE input/output utility
Info {
version     =  8.8
type        = grid
dimension   =  1
nb_vertices =  116
nb_edges    =  0
nb_faces    =  0
nb_elements =  117
nb_regions  =  11
regions     = [ "contact_0" "left_n" "iface1a" "iface1b" "mid_bound" "iface2b" "iface2a" "right_p" "contact_1" "Source" "Drain" ]
materials     = [ GaN GaN GaN InGaN InGaN InGaN AlGaN AlGaN AlGaN Contact Contact ]
 }
Data {
CoordSystem {
translate = [  0  0  0 ]
transform = [  1  0  0  0  1  0  0  0  1 ]
 }
Vertices (  116) {
 -0.0008
 -0.0004
 0
 0.0004
 0.0008
 0.0012
 0.0016
 0.002
 0.0024
 0.0028
 0.0032
 0.0036
 0.004
 0.0044
 0.0048
 0.0052
 0.0056
 0.006
 0.0064
 0.0068
 0.0072
 0.0076
 0.008
 0.0084
 0.0088
 0.0092
 0.0096
 0.01
 0.0104
 0.0108
 0.0112
 0.0116
 0.012
 0.0124
 0.0128
 0.0132
 0.0136
 0.014
 0.01405
 0.0141
 0.01415
 0.0142
 0.01425
 0.0143
 0.01435
 0.0144
 0.01465
 0.0149
 0.01515
 0.0154
 0.01565
 0.0159
 0.01615
 0.0164
 0.01665
 0.0169
 0.01715
 0.0174
 0.01745
 0.0175
 0.01755
 0.0176
 0.01765
 0.0177
 0.01775
 0.0178
 0.01805
 0.0183
 0.01855
 0.0188
 0.01905
 0.0193
 0.01955
 0.0198
 0.02005
 0.0203
 0.02055
 0.0208
 0.02105
 0.0213
 0.02155
 0.0218
 0.02205
 0.0223
 0.02255
 0.0228
 0.02305
 0.0233
 0.02355
 0.0238
 0.02405
 0.0243
 0.02455
 0.0248
 0.02505
 0.0253
 0.02555
 0.0258
 0.02605
 0.0263
 0.02655
 0.0268
 0.02705
 0.0273
 0.02755
 0.0278
 0.02805
 0.0283
 0.02855
 0.0288
 0.02905
 0.0293
 0.02955
 0.0298
 0.03005
 0.0303
 }
Locations (  116) {
 e e e i i i i i i i i i i i i i i i i i i i i i i i i i i i i
 i i i i i i f i i i f i i i f i i i i i i i i i i i f i i i
 f i i i f i i i i i i i i i i i i i i i i i i i i i i i i i
 i i i i i i i i i i i i i i i i i i i i i i e e e }
Elements (  117) {
 1 1 0
 1 2 1
 1 3 2
 1 4 3
 1 5 4
 1 6 5
 1 7 6
 1 8 7
 1 9 8
 1 10 9
 1 11 10
 1 12 11
 1 13 12
 1 14 13
 1 15 14
 1 16 15
 1 17 16
 1 18 17
 1 19 18
 1 20 19
 1 21 20
 1 22 21
 1 23 22
 1 24 23
 1 25 24
 1 26 25
 1 27 26
 1 28 27
 1 29 28
 1 30 29
 1 31 30
 1 32 31
 1 33 32
 1 34 33
 1 35 34
 1 36 35
 1 37 36
 1 38 37
 1 39 38
 1 40 39
 1 41 40
 1 42 41
 1 43 42
 1 44 43
 1 45 44
 1 46 45
 1 47 46
 1 48 47
 1 49 48
 1 50 49
 1 51 50
 1 52 51
 1 53 52
 1 54 53
 1 55 54
 1 56 55
 1 57 56
 1 58 57
 1 59 58
 1 60 59
 1 61 60
 1 62 61
 1 63 62
 1 64 63
 1 65 64
 1 66 65
 1 67 66
 1 68 67
 1 69 68
 1 70 69
 1 71 70
 1 72 71
 1 73 72
 1 74 73
 1 75 74
 1 76 75
 1 77 76
 1 78 77
 1 79 78
 1 80 79
 1 81 80
 1 82 81
 1 83 82
 1 84 83
 1 85 84
 1 86 85
 1 87 86
 1 88 87
 1 89 88
 1 90 89
 1 91 90
 1 92 91
 1 93 92
 1 94 93
 1 95 94
 1 96 95
 1 97 96
 1 98 97
 1 99 98
 1 100 99
 1 101 100
 1 102 101
 1 103 102
 1 104 103
 1 105 104
 1 106 105
 1 107 106
 1 108 107
 1 109 108
 1 110 109
 1 111 110
 1 112 111
 1 113 112
 1 114 113
 1 115 114
 0 2
 0 113
 }
Region ("contact_0") {
material =GaN
Elements ( 2) {
 0 1}
}
Region ("left_n") {
material =GaN
Elements ( 35) {
 2 3 4 5 6 7 8 9 10 11 12 13 14 15 16 17 18 19 20 21 22
 23 24 25 26 27 28 29 30 31 32 33 34 35 36}
}
Region ("iface1a") {
material =GaN
Elements ( 4) {
 37 38 39 40}
}
Region ("iface1b") {
material =InGaN
Elements ( 4) {
 41 42 43 44}
}
Region ("mid_bound") {
material =InGaN
Elements ( 12) {
 45 46 47 48 49 50 51 52 53 54 55 56}
}
Region ("iface2b") {
material =InGaN
Elements ( 4) {
 57 58 59 60}
}
Region ("iface2a") {
material =AlGaN
Elements ( 4) {
 61 62 63 64}
}
Region ("right_p") {
material =AlGaN
Elements ( 48) {
 65 66 67 68 69 70 71 72 73 74 75 76 77 78 79 80 81 82 83 84 85
 86 87 88 89 90 91 92 93 94 95 96 97 98 99 100 101 102 103 104 105
 106 107 108 109 110 111 112}
}
Region ("contact_1") {
material =AlGaN
Elements ( 2) {
 113 114}
}
Region ("Source") {
material =Contact
Elements ( 1) {
 115}
}
Region ("Drain") {
material =Contact
Elements ( 1) {
 116}
}
}
