DF-ISE text

# filename: mesh3_msh.grd
# written by the library Delaunay
Info {
version     =  1.1
type        = grid
dimension   =  1
nb_vertices =  69
nb_edges    =  0
nb_faces    =  0
nb_elements =  70
nb_regions  =  5
regions     = [ "contact_0" "middle" "contact_1" "Source" "Drain" ]
materials     = [ GaAs GaAs GaAs Contact Contact ]
 }
Data {
CoordSystem {
translate = [  0  0  0 ]
transform = [  1  0  0  0  1  0  0  0  1 ]
 }
Vertices (  69) {
 -0.0015625
 -0.00078125
 0
 0.00078125
 0.0015625
 0.00234375
 0.003125
 0.00390625
 0.004687500000000001
 0.005468750000000001
 0.00625
 0.00703125
 0.0078125
 0.008593750000000001
 0.009375000000000001
 0.01015625
 0.0109375
 0.01171875
 0.0125
 0.01328125
 0.0140625
 0.01484375
 0.015625
 0.01640625
 0.0171875
 0.01796875
 0.01875
 0.01953125
 0.0203125
 0.02109375
 0.021875
 0.02265625
 0.0234375
 0.02421875
 0.025
 0.02578125
 0.0265625
 0.02734375
 0.028125
 0.02890625
 0.0296875
 0.03046875
 0.03125
 0.03203125
 0.0328125
 0.03359375000000001
 0.034375
 0.03515625
 0.0359375
 0.03671875000000001
 0.03750000000000001
 0.03828125
 0.03906250000000001
 0.03984375000000001
 0.04062500000000001
 0.04140625000000001
 0.0421875
 0.04296875
 0.04375
 0.04453125000000001
 0.04531250000000001
 0.04609375
 0.046875
 0.04765625
 0.0484375
 0.04921875000000001
 0.05
 0.05078125
 0.0515625
 }
Locations (  69) {
e i f i i i i i i i i i i i i i i i i i i i i i i i i i i i
i i i i i i i i i i i i i i i i i i i i i i i i i i i i i i
i i i i i i f i e }
Elements (  70) {
 1 0 1
 1 1 2
 0 2
 1 2 3
 1 3 4
 1 4 5
 1 5 6
 1 6 7
 1 7 8
 1 8 9
 1 9 10
 1 10 11
 1 11 12
 1 12 13
 1 13 14
 1 14 15
 1 15 16
 1 16 17
 1 17 18
 1 18 19
 1 19 20
 1 20 21
 1 21 22
 1 22 23
 1 23 24
 1 24 25
 1 25 26
 1 26 27
 1 27 28
 1 28 29
 1 29 30
 1 30 31
 1 31 32
 1 32 33
 1 33 34
 1 34 35
 1 35 36
 1 36 37
 1 37 38
 1 38 39
 1 39 40
 1 40 41
 1 41 42
 1 42 43
 1 43 44
 1 44 45
 1 45 46
 1 46 47
 1 47 48
 1 48 49
 1 49 50
 1 50 51
 1 51 52
 1 52 53
 1 53 54
 1 54 55
 1 55 56
 1 56 57
 1 57 58
 1 58 59
 1 59 60
 1 60 61
 1 61 62
 1 62 63
 1 63 64
 1 64 65
 1 65 66
 0 66
 1 66 67
 1 67 68
 }
Region ("contact_0") {
material =GaAs
Elements ( 2) {
 0 1}
}
Region ("middle") {
material =GaAs
Elements ( 64) {
 3 4 5 6 7 8 9 10 11 12 13 14 15 16 17 18 19 20 21 22
 23 24 25 26 27 28 29 30 31 32 33 34 35 36 37 38 39 40 41 42
 43 44 45 46 47 48 49 50 51 52 53 54 55 56 57 58 59 60 61 62
 63 64 65 66}
}
Region ("contact_1") {
material =GaAs
Elements ( 2) {
 68 69}
}
Region ("Source") {
material =Contact
Elements ( 1) {
 2}
}
Region ("Drain") {
material =Contact
Elements ( 1) {
 67}
}
}
