DF-ISE text

Info {
  version = 1.0
  type    = grid
  dimension   = 1
  nb_vertices = 64
  nb_edges    = 0
  nb_faces    = 0
  nb_elements = 65
  nb_regions  = 9
  regions     = [ "contact_0" "left_p" "barrier1" "middle" "barrier2" "right_n" "contact_1" "Source" "Drain" ]
  materials   = [ GaAs GaAs GaAs GaAs GaAs GaAs GaAs Contact Contact ]
}

Data {

  CoordSystem {
    translate = [  0.000000000000000e+00 0.000000000000000e+00 0.000000000000000e+00 ]
    transform = [  1.000000000000000e+00 0.000000000000000e+00 0.000000000000000e+00
 0.000000000000000e+00 1.000000000000000e+00 0.000000000000000e+00
 0.000000000000000e+00 0.000000000000000e+00 1.000000000000000e+00
 ]
  }

  Vertices (64) {
 -1.000000000000000e-03
 0.000000000000000e+00
 1.000000000000000e-03
 2.000000000000000e-03
 3.000000000000000e-03
 4.000000000000000e-03
 5.000000000000000e-03
 6.000000000000000e-03
 7.000000000000000e-03
 8.000000000000000e-03
 8.999999999999999e-03
 1.000000000000000e-02
 1.100000000000000e-02
 1.200000000000000e-02
 1.300000000000000e-02
 1.400000000000000e-02
 1.500000000000000e-02
 1.600000000000000e-02
 1.700000000000000e-02
 1.800000000000000e-02
 1.900000000000000e-02
 2.000000000000000e-02
 2.100000000000000e-02
 2.200000000000000e-02
 2.300000000000000e-02
 2.400000000000000e-02
 2.500000000000000e-02
 2.600000000000000e-02
 2.700000000000000e-02
 2.800000000000000e-02
 2.900000000000000e-02
 3.000000000000000e-02
 3.100000000000000e-02
 3.200000000000000e-02
 3.300000000000000e-02
 3.400000000000000e-02
 3.500000000000000e-02
 3.600000000000000e-02
 3.700000000000000e-02
 3.800000000000000e-02
 3.900000000000000e-02
 4.000000000000000e-02
 4.100000000000000e-02
 4.200000000000000e-02
 4.300000000000000e-02
 4.400000000000000e-02
 4.500000000000000e-02
 4.600000000000000e-02
 4.700000000000000e-02
 4.800000000000000e-02
 4.900000000000000e-02
 5.000000000000000e-02
 5.100000000000000e-02
 5.200000000000000e-02
 5.300000000000000e-02
 5.400000000000000e-02
 5.500000000000000e-02
 5.600000000000000e-02
 5.700000000000000e-02
 5.800000000000000e-02
 5.900000000000000e-02
 6.000000000000000e-02
 6.100000000000000e-02
 6.200000000000000e-02

  }

  Locations (64) {
eeiiiiiiii
iiiiiiiiii
ifiiiiiifi
iiiifiiiii
ifiiiiiiii
iiiiiiiiii
ieee
  }

  Elements (65) {
 1 0 1
 1 1 2
 1 2 3
 1 3 4
 1 4 5
 1 5 6
 1 6 7
 1 7 8
 1 8 9
 1 9 10
 1 10 11
 1 11 12
 1 12 13
 1 13 14
 1 14 15
 1 15 16
 1 16 17
 1 17 18
 1 18 19
 1 19 20
 1 20 21
 1 21 22
 1 22 23
 1 23 24
 1 24 25
 1 25 26
 1 26 27
 1 27 28
 1 28 29
 1 29 30
 1 30 31
 1 31 32
 1 32 33
 1 33 34
 1 34 35
 1 35 36
 1 36 37
 1 37 38
 1 38 39
 1 39 40
 1 40 41
 1 41 42
 1 42 43
 1 43 44
 1 44 45
 1 45 46
 1 46 47
 1 47 48
 1 48 49
 1 49 50
 1 50 51
 1 51 52
 1 52 53
 1 53 54
 1 54 55
 1 55 56
 1 56 57
 1 57 58
 1 58 59
 1 59 60
 1 60 61
 1 61 62
 1 62 63
 0 1
 0 61

  }

  Region ("contact_0") {
    material = GaAs
    Elements (1) {
 0
    }
  }

  Region ("left_p") {
    material = GaAs
    Elements (20) {
 1 2 3 4 5 6 7 8 9 10
 11 12 13 14 15 16 17 18 19 20

    }
  }

  Region ("barrier1") {
    material = GaAs
    Elements (7) {
 21 22 23 24 25 26 27
    }
  }

  Region ("middle") {
    material = GaAs
    Elements (6) {
 28 29 30 31 32 33
    }
  }

  Region ("barrier2") {
    material = GaAs
    Elements (7) {
 34 35 36 37 38 39 40
    }
  }

  Region ("right_n") {
    material = GaAs
    Elements (20) {
 41 42 43 44 45 46 47 48 49 50
 51 52 53 54 55 56 57 58 59 60

    }
  }

  Region ("contact_1") {
    material = GaAs
    Elements (2) {
 61 62
    }
  }

  Region ("Source") {
    material = Contact
    Elements (1) {
 63
    }
  }

  Region ("Drain") {
    material = Contact
    Elements (1) {
 64
    }
  }

}
