DF-ISE text

Info {
  version = 1.0
  type    = dataset
  dimension   = 1
  nb_vertices = 75
  nb_edges    = 0
  nb_faces    = 0
  nb_elements = 74
  nb_regions  = 76
  datasets    = [ "DopingConcentration" "PhosphorusActiveConcentration" "BoronActiveConcentration" "xMoleFraction" ]
  functions   = [ DopingConcentration PhosphorusActiveConcentration BoronActiveConcentration xMoleFraction ]
}

Data {

  Dataset ("DopingConcentration") {
    function  = DopingConcentration
    type      = scalar
    dimension = 1
    location  = vertex
    validity  = [ "contact_0" "left_n" "left_i" "barrier1" "mid_bound" "barrier2" "right_i" "right_n" "contact_1" "Source" "Drain" ]
    Values (75) {
 2.000000000000000e+24 2.000000000000000e+24 2.000000000000000e+24 2.000000000000000e+24 2.000000000000000e+24 2.000000000000000e+24 2.000000000000000e+24 2.000000000000000e+24 2.000000000000000e+24 2.000000000000000e+24
 2.000000000000000e+24 2.000000000000000e+24 2.000000000000000e+24 2.000000000000000e+24 2.000000000000000e+24 2.000000000000000e+24 2.000000000000000e+24 2.000000000000000e+24 2.000000000000000e+24 2.000000000000000e+24
 2.000000000000000e+24 2.000000000000000e+24 2.000000000000000e+24 2.000000000000000e+24 2.000000000000000e+24 1.000000000000000e+16 1.000000000000000e+16 1.000000000000000e+16 1.000000000000000e+16 1.000000000000000e+16
 1.000000000000000e+16 1.000000000000000e+16 1.000000000000000e+16 1.000000000000000e+16 1.000000000000000e+16 1.000000000000000e+16 1.000000000000000e+16 1.000000000000000e+16 1.000000000000000e+16 1.000000000000000e+16
 1.000000000000000e+16 1.000000000000000e+16 1.000000000000000e+16 1.000000000000000e+16 1.000000000000000e+16 1.000000000000000e+16 1.000000000000000e+16 1.000000000000000e+16 1.000000000000000e+16 1.000000000000000e+16
 1.000000000000000e+16 2.000000000000000e+24 2.000000000000000e+24 2.000000000000000e+24 2.000000000000000e+24 2.000000000000000e+24 2.000000000000000e+24 2.000000000000000e+24 2.000000000000000e+24 2.000000000000000e+24
 2.000000000000000e+24 2.000000000000000e+24 2.000000000000000e+24 2.000000000000000e+24 2.000000000000000e+24 2.000000000000000e+24 2.000000000000000e+24 2.000000000000000e+24 2.000000000000000e+24 2.000000000000000e+24
 2.000000000000000e+24 2.000000000000000e+24 2.000000000000000e+24 2.000000000000000e+24 2.000000000000000e+24
    }
  }

  Dataset ("PhosphorusActiveConcentration") {
    function  = PhosphorusActiveConcentration
    type      = scalar
    dimension = 1
    location  = vertex
    validity  = [ "contact_0" "left_n" "left_i" "barrier1" "mid_bound" "barrier2" "right_i" "right_n" "contact_1" "Source" "Drain" ]
    Values (75) {
 2.000000000000000e+24 2.000000000000000e+24 2.000000000000000e+24 2.000000000000000e+24 2.000000000000000e+24 2.000000000000000e+24 2.000000000000000e+24 2.000000000000000e+24 2.000000000000000e+24 2.000000000000000e+24
 2.000000000000000e+24 2.000000000000000e+24 2.000000000000000e+24 2.000000000000000e+24 2.000000000000000e+24 2.000000000000000e+24 2.000000000000000e+24 2.000000000000000e+24 2.000000000000000e+24 2.000000000000000e+24
 2.000000000000000e+24 2.000000000000000e+24 2.000000000000000e+24 2.000000000000000e+24 2.000000000000000e+24 1.000000000000000e+16 1.000000000000000e+16 1.000000000000000e+16 1.000000000000000e+16 1.000000000000000e+16
 1.000000000000000e+16 1.000000000000000e+16 1.000000000000000e+16 1.000000000000000e+16 1.000000000000000e+16 1.000000000000000e+16 1.000000000000000e+16 1.000000000000000e+16 1.000000000000000e+16 1.000000000000000e+16
 1.000000000000000e+16 1.000000000000000e+16 1.000000000000000e+16 1.000000000000000e+16 1.000000000000000e+16 1.000000000000000e+16 1.000000000000000e+16 1.000000000000000e+16 1.000000000000000e+16 1.000000000000000e+16
 1.000000000000000e+16 2.000000000000000e+24 2.000000000000000e+24 2.000000000000000e+24 2.000000000000000e+24 2.000000000000000e+24 2.000000000000000e+24 2.000000000000000e+24 2.000000000000000e+24 2.000000000000000e+24
 2.000000000000000e+24 2.000000000000000e+24 2.000000000000000e+24 2.000000000000000e+24 2.000000000000000e+24 2.000000000000000e+24 2.000000000000000e+24 2.000000000000000e+24 2.000000000000000e+24 2.000000000000000e+24
 2.000000000000000e+24 2.000000000000000e+24 2.000000000000000e+24 2.000000000000000e+24 2.000000000000000e+24
    }
  }

  Dataset ("BoronActiveConcentration") {
    function  = BoronActiveConcentration
    type      = scalar
    dimension = 1
    location  = vertex
    validity  = [ "contact_0" "left_n" "left_i" "barrier1" "mid_bound" "barrier2" "right_i" "right_n" "contact_1" "Source" "Drain" ]
    Values (75) {
 0.000000000000000e+00 0.000000000000000e+00 0.000000000000000e+00 0.000000000000000e+00 0.000000000000000e+00 0.000000000000000e+00 0.000000000000000e+00 0.000000000000000e+00 0.000000000000000e+00 0.000000000000000e+00
 0.000000000000000e+00 0.000000000000000e+00 0.000000000000000e+00 0.000000000000000e+00 0.000000000000000e+00 0.000000000000000e+00 0.000000000000000e+00 0.000000000000000e+00 0.000000000000000e+00 0.000000000000000e+00
 0.000000000000000e+00 0.000000000000000e+00 0.000000000000000e+00 0.000000000000000e+00 0.000000000000000e+00 0.000000000000000e+00 0.000000000000000e+00 0.000000000000000e+00 0.000000000000000e+00 0.000000000000000e+00
 0.000000000000000e+00 0.000000000000000e+00 0.000000000000000e+00 0.000000000000000e+00 0.000000000000000e+00 0.000000000000000e+00 0.000000000000000e+00 0.000000000000000e+00 0.000000000000000e+00 0.000000000000000e+00
 0.000000000000000e+00 0.000000000000000e+00 0.000000000000000e+00 0.000000000000000e+00 0.000000000000000e+00 0.000000000000000e+00 0.000000000000000e+00 0.000000000000000e+00 0.000000000000000e+00 0.000000000000000e+00
 0.000000000000000e+00 0.000000000000000e+00 0.000000000000000e+00 0.000000000000000e+00 0.000000000000000e+00 0.000000000000000e+00 0.000000000000000e+00 0.000000000000000e+00 0.000000000000000e+00 0.000000000000000e+00
 0.000000000000000e+00 0.000000000000000e+00 0.000000000000000e+00 0.000000000000000e+00 0.000000000000000e+00 0.000000000000000e+00 0.000000000000000e+00 0.000000000000000e+00 0.000000000000000e+00 0.000000000000000e+00
 0.000000000000000e+00 0.000000000000000e+00 0.000000000000000e+00 0.000000000000000e+00 0.000000000000000e+00
    }
  }

  Dataset ("xMoleFraction") {
    function  = xMoleFraction
    type      = scalar
    dimension = 1
    location  = vertex
    validity  = [ "contact_0" "left_n" "left_i" "barrier1" "mid_bound" "barrier2" "right_i" "right_n" "contact_1" "Source" "Drain" ]
    Values (75) {
 0.000000000000000e+00 0.000000000000000e+00 0.000000000000000e+00 0.000000000000000e+00 0.000000000000000e+00 0.000000000000000e+00 0.000000000000000e+00 0.000000000000000e+00 0.000000000000000e+00 0.000000000000000e+00
 0.000000000000000e+00 0.000000000000000e+00 0.000000000000000e+00 0.000000000000000e+00 0.000000000000000e+00 0.000000000000000e+00 0.000000000000000e+00 0.000000000000000e+00 0.000000000000000e+00 0.000000000000000e+00
 0.000000000000000e+00 0.000000000000000e+00 0.000000000000000e+00 0.000000000000000e+00 0.000000000000000e+00 0.000000000000000e+00 0.000000000000000e+00 0.000000000000000e+00 3.000000000000000e-01 3.000000000000000e-01
 3.000000000000000e-01 3.000000000000000e-01 3.000000000000000e-01 3.000000000000000e-01 0.000000000000000e+00 0.000000000000000e+00 0.000000000000000e+00 0.000000000000000e+00 0.000000000000000e+00 0.000000000000000e+00
 0.000000000000000e+00 0.000000000000000e+00 3.000000000000000e-01 3.000000000000000e-01 3.000000000000000e-01 3.000000000000000e-01 3.000000000000000e-01 3.000000000000000e-01 0.000000000000000e+00 0.000000000000000e+00
 0.000000000000000e+00 0.000000000000000e+00 0.000000000000000e+00 0.000000000000000e+00 0.000000000000000e+00 0.000000000000000e+00 0.000000000000000e+00 0.000000000000000e+00 0.000000000000000e+00 0.000000000000000e+00
 0.000000000000000e+00 0.000000000000000e+00 0.000000000000000e+00 0.000000000000000e+00 0.000000000000000e+00 0.000000000000000e+00 0.000000000000000e+00 0.000000000000000e+00 0.000000000000000e+00 0.000000000000000e+00
 0.000000000000000e+00 0.000000000000000e+00 0.000000000000000e+00 0.000000000000000e+00 0.000000000000000e+00
    }
  }

}
